&FCI NORB=6, NELEC=6, MS2=0
 ORBSYM=1,1,1,1,1,1,1,1,1,1,1,1,1,1,
 ISYM=1
&END
0 0 0 0 0
4 1 1 1 1
4 2 2 2 2
4 3 3 3 3
4 4 4 4 4
4 5 5 5 5
4 6 6 6 6
-1 2 1 0 0
-1 3 2 0 0 
-1 4 3 0 0
-1 5 4 0 0 
-1 6 5 0 0