&FCI NORB=8, NELEC=8, MS2=0
 ORBSYM=1,1,1,1,1,1,1,1,
 ISYM=1
&END
0 0 0 0 0
8 1 1 1 1
8 2 2 2 2
8 3 3 3 3
8 4 4 4 4
8 5 5 5 5
8 6 6 6 6
8 7 7 7 7
8 8 8 8 8
-1 2 1 0 0 
-1 3 2 0 0 
-1 4 3 0 0 
-1 5 4 0 0 
-1 6 5 0 0 
-1 7 6 0 0 
-1 8 7 0 0 
