 &FCI NORB=   6,NELEC= 4,MS2=0,
  ORBSYM=1,1,1,1,1,1
  ISYM=1,
 &END
 1.657462245400486    1    1    1    1
 -0.1232104541097691    2    1    1    1
 0.01650461099950261    2    1    2    1
 0.3935977815157156    2    2    1    1
 0.008489102067670935    2    2    2    1
 0.5013007605417349    2    2    2    2
 -0.1364653992567247    3    1    1    1
 0.01194540638352044    3    1    2    1
 -0.01847330172204746    3    1    2    2
 0.02131763325169619    3    1    3    1
 0.009557490922833992    3    2    1    1
 -0.004049970246899969    3    2    2    1
 -0.0453741229529756    3    2    2    2
 0.0002894380372535684    3    2    3    1
 0.01135989629308306    3    2    3    2
 0.3961238601373323    3    3    1    1
 -0.01241410215725491    3    3    2    1
 0.2299662563760518    3    3    2    2
 0.002187659173073724    3    3    3    1
 0.004825789169085406    3    3    3    2
 0.3394850885027012    3    3    3    3
 0.009821692934715484    4    1    4    1
 0.007680041450893314    4    2    4    1
 0.02457775175023555    4    2    4    2
 0.01023421259124514    4    3    4    1
 0.0191833639178726    4    3    4    2
 0.04139650073658036    4    3    4    3
 0.3962908957618654    4    4    1    1
 -0.004858697644060625    4    4    2    1
 0.280184399536638    4    4    2    2
 -0.004892166864761381    4    4    3    1
 0.003795198902693164    4    4    3    2
 0.2824004454965211    4    4    3    3
 0.3129455111594085    4    4    4    4
 0.009821692934715484    5    1    5    1
 0.007680041450893314    5    2    5    1
 0.02457775175023555    5    2    5    2
 0.01023421259124514    5    3    5    1
 0.0191833639178726    5    3    5    2
 0.04139650073658036    5    3    5    3
 0.0168691395136909    5    4    5    4
 0.3962908957618654    5    5    1    1
 -0.004858697644060625    5    5    2    1
 0.280184399536638    5    5    2    2
 -0.004892166864761381    5    5    3    1
 0.003795198902693164    5    5    3    2
 0.2824004454965211    5    5    3    3
 0.2792072321320269    5    5    4    4
 0.3129455111594085    5    5    5    5
 0.03021223326943797    6    1    1    1
 -0.00680153081944847    6    1    2    1
 -0.004720939777240133    6    1    2    2
 0.0001551396123762926    6    1    3    1
 0.0006323425077084797    6    1    3    2
 0.008423825253480316    6    1    3    3
 -0.0003141714127530274    6    1    4    4
 -0.0003141714127530274    6    1    5    5
 0.005689852037852568    6    1    6    1
 -0.01285757200520894    6    2    1    1
 0.007017539352086542    6    2    2    1
 0.1382013254220292    6    2    2    2
 -0.002357569180012566    6    2    3    1
 -0.0325363726427134    6    2    3    2
 -0.00585089301774298    6    2    3    3
 -0.00498280193505442    6    2    4    4
 -0.00498280193505442    6    2    5    5
 0.001078065723633892    6    2    6    1
 0.1222547251208526    6    2    6    2
 0.01744757924884129    6    3    1    1
 -0.005048078055847913    6    3    2    1
 -0.0506506948501883    6    3    2    2
 0.004618465240728169    6    3    3    1
 0.007590446255992768    6    3    3    2
 0.03614917151050775    6    3    3    3
 0.0006767017303476473    6    3    4    4
 0.0006767017303476473    6    3    5    5
 0.003896234333319799    6    3    6    1
 -0.03039354850125812    6    3    6    2
 0.02630902989680738    6    3    6    3
 -0.005782964944344138    6    4    4    1
 -0.01930817295564481    6    4    4    2
 -0.01390482822017152    6    4    4    3
 0.01905111902266177    6    4    6    4
 -0.005782964944344138    6    5    5    1
 -0.01930817295564481    6    5    5    2
 -0.01390482822017152    6    5    5    3
 0.01905111902266177    6    5    6    5
 0.3612976342286219    6    6    1    1
 0.005734674092270425    6    6    2    1
 0.4598671673877835    6    6    2    2
 -0.01147675873347303    6    6    3    1
 -0.0409602733606576    6    6    3    2
 0.2424562448408239    6    6    3    3
 0.2701278196272459    6    6    4    4
 0.2701278196272459    6    6    5    5
 -0.0008113294739399063    6    6    6    1
 0.1460722141524713    6    6    6    2
 -0.04296609570853499    6    6    6    3
 0.4569345811787106    6    6    6    6
 -4.774126864266985    1    1  0  0
 0.1147213547578879    2    1  0  0
 -1.573190504374972    2    2  0  0
 0.1693620508860621    3    1  0  0
 0.03820433971197043    3    2  0  0
 -1.140003196571666    3    3  0  0
 -1.155276103219626    4    4  0  0
 -1.155276103219626    5    5  0  0
 -0.01375279420327761    6    1  0  0
 -0.1192877484728474    6    2  0  0
 0.03402503718301146    6    3  0  0
 -0.9174674606494209    6    6  0  0
 1.133951166257143  0  0  0  0
