 &FCI NORB=   6,NELEC= 4,MS2=0,
  ORBSYM=1,1,1,1,1,1
  ISYM=1,
 &END
 1.657462245400481    1    1    1    1
 -0.1232104541097686    2    1    1    1
 0.01650461099950255    2    1    2    1
 0.3935977815157147    2    2    1    1
 0.008489102067670997    2    2    2    1
 0.5013007605417341    2    2    2    2
 -0.1364653992567241    3    1    1    1
 0.01194540638352038    3    1    2    1
 -0.01847330172204726    3    1    2    2
 0.02131763325169614    3    1    3    1
 0.009557490922833849    3    2    1    1
 -0.004049970246899913    3    2    2    1
 -0.04537412295297497    3    2    2    2
 0.0002894380372535158    3    2    3    1
 0.0113598962930828    3    2    3    2
 0.3961238601373316    3    3    1    1
 -0.01241410215725488    3    3    2    1
 0.2299662563760512    3    3    2    2
 0.002187659173073876    3    3    3    1
 0.00482578916908514    3    3    3    2
 0.3394850885027009    3    3    3    3
 0.009821692934715484    4    1    4    1
 0.007680041450893306    4    2    4    1
 0.02457775175023547    4    2    4    2
 0.01023421259124516    4    3    4    1
 0.01918336391787255    4    3    4    2
 0.04139650073658039    4    3    4    3
 0.3962908957618649    4    4    1    1
 -0.004858697644060559    4    4    2    1
 0.2801843995366377    4    4    2    2
 -0.004892166864761221    4    4    3    1
 0.003795198902693085    4    4    3    2
 0.2824004454965209    4    4    3    3
 0.3129455111594085    4    4    4    4
 0.009821692934715484    5    1    5    1
 0.007680041450893306    5    2    5    1
 0.02457775175023547    5    2    5    2
 0.01023421259124516    5    3    5    1
 0.01918336391787255    5    3    5    2
 0.04139650073658039    5    3    5    3
 0.0168691395136909    5    4    5    4
 0.3962908957618649    5    5    1    1
 -0.004858697644060559    5    5    2    1
 0.2801843995366377    5    5    2    2
 -0.004892166864761221    5    5    3    1
 0.003795198902693085    5    5    3    2
 0.2824004454965209    5    5    3    3
 0.2792072321320269    5    5    4    4
 0.3129455111594085    5    5    5    5
 0.03021223326943718    6    1    1    1
 -0.006801530819448426    6    1    2    1
 -0.004720939777240405    6    1    2    2
 0.0001551396123763363    6    1    3    1
 0.0006323425077084526    6    1    3    2
 0.008423825253480077    6    1    3    3
 -0.0003141714127532579    6    1    4    4
 -0.0003141714127532579    6    1    5    5
 0.005689852037852538    6    1    6    1
 -0.01285757200520894    6    2    1    1
 0.007017539352086515    6    2    2    1
 0.138201325422029    6    2    2    2
 -0.002357569180012573    6    2    3    1
 -0.03253637264271302    6    2    3    2
 -0.005850893017743286    6    2    3    3
 -0.004982801935054437    6    2    4    4
 -0.004982801935054437    6    2    5    5
 0.001078065723633868    6    2    6    1
 0.1222547251208524    6    2    6    2
 0.0174475792488414    6    3    1    1
 -0.0050480780558479    6    3    2    1
 -0.05065069485018774    6    3    2    2
 0.004618465240728141    6    3    3    1
 0.007590446255992468    6    3    3    2
 0.03614917151050784    6    3    3    3
 0.0006767017303477546    6    3    4    4
 0.0006767017303477546    6    3    5    5
 0.003896234333319803    6    3    6    1
 -0.03039354850125783    6    3    6    2
 0.0263090298968072    6    3    6    3
 -0.00578296494434415    6    4    4    1
 -0.01930817295564477    6    4    4    2
 -0.01390482822017154    6    4    4    3
 0.01905111902266174    6    4    6    4
 -0.00578296494434415    6    5    5    1
 -0.01930817295564477    6    5    5    2
 -0.01390482822017154    6    5    5    3
 0.01905111902266174    6    5    6    5
 0.3612976342286212    6    6    1    1
 0.005734674092270456    6    6    2    1
 0.4598671673877829    6    6    2    2
 -0.01147675873347289    6    6    3    1
 -0.04096027336065714    6    6    3    2
 0.2424562448408233    6    6    3    3
 0.2701278196272456    6    6    4    4
 0.2701278196272456    6    6    5    5
 -0.0008113294739401667    6    6    6    1
 0.1460722141524711    6    6    6    2
 -0.0429660957085344    6    6    6    3
 0.4569345811787098    6    6    6    6
 -4.77412686426698    1    1  0  0
 0.1147213547578874    2    1  0  0
 -1.573190504374971    2    2  0  0
 0.1693620508860607    3    1  0  0
 0.03820433971196975    3    2  0  0
 -1.140003196571665    3    3  0  0
 -1.155276103219626    4    4  0  0
 -1.155276103219626    5    5  0  0
 -0.01375279420327563    6    1  0  0
 -0.1192877484728474    6    2  0  0
 0.03402503718301082    6    3  0  0
 -0.9174674606494201    6    6  0  0
 1.133951166257143  0  0  0  0
