 &FCI NORB=   5,NELEC= 6,MS2=0,
  ORBSYM=2,3,1,1,1
  ISYM=1,
 &END
 0.8993327620104052    1    1    1    1
 0.8102762999527477    1    1    2    2
 0.6715262791598547    1    1    3    3
 0.1991046209106097    1    1    4    3
 0.4361600853139723    1    1    4    4
 0.06207195002752898    1    1    5    3
 0.09450700684213381    1    1    5    4
 0.3308617068201887    1    1    5    5
 0.04452823102882888    2    1    2    1
 0.8102762999527477    2    2    1    1
 0.8993327620104061    2    2    2    2
 0.671526279159855    2    2    3    3
 0.19910462091061    2    2    4    3
 0.4361600853139723    2    2    4    4
 0.06207195002752907    2    2    5    3
 0.09450700684213398    2    2    5    4
 0.3308617068201886    2    2    5    5
 0.03343640202750687    3    1    3    1
 0.01609348826904473    3    1    4    1
 0.007295157495094123    3    1    5    1
 0.03343640202750689    3    2    3    2
 0.01609348826904474    3    2    4    2
 0.007295157495094128    3    2    5    2
 0.6715262791598549    3    3    1    1
 0.6715262791598551    3    3    2    2
 0.6637444517133564    3    3    3    3
 0.1276371605803083    3    3    4    3
 0.4722639469291499    3    3    4    4
 0.002851172834021282    3    3    5    3
 0.1237325866915458    3    3    5    4
 0.4197552416397436    3    3    5    5
 0.01609348826904473    4    1    3    1
 0.01458452544071459    4    1    4    1
 0.005264248891615648    4    1    5    1
 0.01609348826904474    4    2    3    2
 0.01458452544071459    4    2    4    2
 0.005264248891615652    4    2    5    2
 0.1991046209106097    4    3    1    1
 0.1991046209106099    4    3    2    2
 0.1276371605803084    4    3    3    3
 0.139099138509602    4    3    4    3
 -0.004352637046588089    4    3    4    4
 0.07563705692116077    4    3    5    3
 -0.007365689901477519    4    3    5    4
 -0.08068152253091899    4    3    5    5
 0.4361600853139722    4    4    1    1
 0.4361600853139724    4    4    2    2
 0.47226394692915    4    4    3    3
 -0.004352637046588146    4    4    4    3
 0.4519329971483537    4    4    4    4
 -0.04617278725527654    4    4    5    3
 0.09770986845222492    4    4    5    4
 0.444207834475786    4    4    5    5
 0.007295157495094119    5    1    3    1
 0.005264248891615649    5    1    4    1
 0.003811721282893241    5    1    5    1
 0.007295157495094125    5    2    3    2
 0.005264248891615652    5    2    4    2
 0.00381172128289324    5    2    5    2
 0.06207195002752895    5    3    1    1
 0.06207195002752902    5    3    2    2
 0.002851172834021351    5    3    3    3
 0.07563705692116079    5    3    4    3
 -0.04617278725527647    5    3    4    4
 0.07306772225197006    5    3    5    3
 -0.0502523695207352    5    3    5    4
 -0.1129603028835918    5    3    5    5
 0.09450700684213396    5    4    1    1
 0.09450700684213401    5    4    2    2
 0.1237325866915457    5    4    3    3
 -0.007365689901477608    5    4    4    3
 0.09770986845222501    5    4    4    4
 -0.05025236952073517    5    4    5    3
 0.08462112289867964    5    4    5    4
 0.1313283811857049    5    4    5    5
 0.3308617068201886    5    5    1    1
 0.3308617068201886    5    5    2    2
 0.4197552416397437    5    5    3    3
 -0.08068152253091888    5    5    4    3
 0.4442078344757855    5    5    4    4
 -0.1129603028835917    5    5    5    3
 0.131328381185705    5    5    5    4
 0.5313974145592821    5    5    5    5
 -4.382603050208964    1    1  0  0
 -4.382603050208965    2    2  0  0
 -3.871863320265086    3    3  0  0
 -0.891868269294257    4    3  0  0
 -2.475766725405806    4    4  0  0
 -0.2365483388847897    5    3  0  0
 -0.5393274351189439    5    4  0  0
 -1.496381792128447    5    5  0  0
 -85.47957429018834  0  0  0  0
