 &FCI NORB=   5,NELEC= 6,MS2=0,
  ORBSYM=2,3,1,1,1
  ISYM=1,
 &END
 0.8993327620104068    1    1    1    1
 0.8102762999527494    1    1    2    2
 0.6715262791598567    1    1    3    3
 0.1991046209106094    1    1    4    3
 0.4361600853139722    1    1    4    4
 0.06207195002752904    1    1    5    3
 0.09450700684213384    1    1    5    4
 0.3308617068201876    1    1    5    5
 0.04452823102882899    2    1    2    1
 0.8102762999527495    2    2    1    1
 0.8993327620104086    2    2    2    2
 0.6715262791598574    2    2    3    3
 0.1991046209106095    2    2    4    3
 0.4361600853139726    2    2    4    4
 0.06207195002752915    2    2    5    3
 0.09450700684213384    2    2    5    4
 0.3308617068201881    2    2    5    5
 0.03343640202750699    3    1    3    1
 0.01609348826904472    3    1    4    1
 0.007295157495094143    3    1    5    1
 0.03343640202750702    3    2    3    2
 0.01609348826904474    3    2    4    2
 0.007295157495094151    3    2    5    2
 0.6715262791598566    3    3    1    1
 0.6715262791598573    3    3    2    2
 0.6637444517133584    3    3    3    3
 0.1276371605803084    3    3    4    3
 0.4722639469291505    3    3    4    4
 0.002851172834021948    3    3    5    3
 0.1237325866915459    3    3    5    4
 0.4197552416397421    3    3    5    5
 0.01609348826904472    4    1    3    1
 0.01458452544071461    4    1    4    1
 0.005264248891615614    4    1    5    1
 0.01609348826904474    4    2    3    2
 0.01458452544071462    4    2    4    2
 0.005264248891615617    4    2    5    2
 0.1991046209106094    4    3    1    1
 0.1991046209106096    4    3    2    2
 0.1276371605803084    4    3    3    3
 0.139099138509602    4    3    4    3
 -0.004352637046589176    4    3    4    4
 0.07563705692116089    4    3    5    3
 -0.007365689901478352    4    3    5    4
 -0.0806815225309193    4    3    5    5
 0.4361600853139722    4    4    1    1
 0.4361600853139727    4    4    2    2
 0.4722639469291505    4    4    3    3
 -0.004352637046589183    4    4    4    3
 0.4519329971483547    4    4    4    4
 -0.04617278725527701    4    4    5    3
 0.09770986845222587    4    4    5    4
 0.4442078344757855    4    4    5    5
 0.007295157495094144    5    1    3    1
 0.00526424889161561    5    1    4    1
 0.003811721282893215    5    1    5    1
 0.007295157495094152    5    2    3    2
 0.005264248891615617    5    2    4    2
 0.003811721282893221    5    2    5    2
 0.06207195002752904    5    3    1    1
 0.06207195002752909    5    3    2    2
 0.002851172834021979    5    3    3    3
 0.07563705692116092    5    3    4    3
 -0.04617278725527699    5    3    4    4
 0.0730677222519696    5    3    5    3
 -0.05025236952073538    5    3    5    4
 -0.112960302883591    5    3    5    5
 0.0945070068421338    5    4    1    1
 0.09450700684213391    5    4    2    2
 0.1237325866915459    5    4    3    3
 -0.007365689901478375    5    4    4    3
 0.09770986845222573    5    4    4    4
 -0.05025236952073538    5    4    5    3
 0.08462112289868028    5    4    5    4
 0.1313283811857053    5    4    5    5
 0.330861706820188    5    5    1    1
 0.3308617068201883    5    5    2    2
 0.4197552416397423    5    5    3    3
 -0.08068152253091948    5    5    4    3
 0.4442078344757853    5    5    4    4
 -0.112960302883591    5    5    5    3
 0.1313283811857052    5    5    5    4
 0.531397414559279    5    5    5    5
 -4.382603050208967    1    1  0  0
 -4.382603050208971    2    2  0  0
 -3.871863320265093    3    3  0  0
 -0.8918682692942521    4    3  0  0
 -2.475766725405806    4    4  0  0
 -0.2365483388847905    5    3  0  0
 -0.5393274351189417    5    4  0  0
 -1.496381792128444    5    5  0  0
 -85.47957429018835  0  0  0  0
