 &FCI NORB=   5,NELEC= 6,MS2=0,
  ORBSYM=2,3,1,1,1
  ISYM=1,
 &END
 0.8993327620104076    1    1    1    1
 0.8102762999527495    1    1    2    2
 0.6715262791598564    1    1    3    3
 0.1991046209106094    1    1    4    3
 0.4361600853139706    1    1    4    4
 0.06207195002753025    1    1    5    3
 0.09450700684213473    1    1    5    4
 0.3308617068201897    1    1    5    5
 0.044528231028829    2    1    2    1
 0.8102762999527496    2    2    1    1
 0.8993327620104081    2    2    2    2
 0.6715262791598566    2    2    3    3
 0.1991046209106093    2    2    4    3
 0.4361600853139708    2    2    4    4
 0.06207195002753021    2    2    5    3
 0.09450700684213481    2    2    5    4
 0.3308617068201899    2    2    5    5
 0.03343640202750694    3    1    3    1
 0.0160934882690447    3    1    4    1
 0.007295157495094224    3    1    5    1
 0.03343640202750696    3    2    3    2
 0.01609348826904471    3    2    4    2
 0.007295157495094224    3    2    5    2
 0.6715262791598563    3    3    1    1
 0.6715262791598567    3    3    2    2
 0.6637444517133576    3    3    3    3
 0.1276371605803084    3    3    4    3
 0.4722639469291485    3    3    4    4
 0.00285117283402242    3    3    5    3
 0.1237325866915464    3    3    5    4
 0.4197552416397446    3    3    5    5
 0.0160934882690447    4    1    3    1
 0.01458452544071451    4    1    4    1
 0.005264248891615734    4    1    5    1
 0.01609348826904471    4    2    3    2
 0.01458452544071451    4    2    4    2
 0.005264248891615732    4    2    5    2
 0.1991046209106093    4    3    1    1
 0.1991046209106093    4    3    2    2
 0.1276371605803085    4    3    3    3
 0.1390991385096008    4    3    4    3
 -0.004352637046588582    4    3    4    4
 0.07563705692116106    4    3    5    3
 -0.0073656899014772    4    3    5    4
 -0.08068152253091852    4    3    5    5
 0.4361600853139706    4    4    1    1
 0.4361600853139708    4    4    2    2
 0.4722639469291484    4    4    3    3
 -0.004352637046588563    4    4    4    3
 0.4519329971483518    4    4    4    4
 -0.04617278725527626    4    4    5    3
 0.09770986845222465    4    4    5    4
 0.4442078344757855    4    4    5    5
 0.007295157495094223    5    1    3    1
 0.005264248891615737    5    1    4    1
 0.003811721282893312    5    1    5    1
 0.007295157495094224    5    2    3    2
 0.005264248891615734    5    2    4    2
 0.00381172128289332    5    2    5    2
 0.06207195002753022    5    3    1    1
 0.0620719500275302    5    3    2    2
 0.00285117283402246    5    3    3    3
 0.07563705692116104    5    3    4    3
 -0.04617278725527624    5    3    4    4
 0.07306772225197053    5    3    5    3
 -0.05025236952073488    5    3    5    4
 -0.1129603028835921    5    3    5    5
 0.09450700684213481    5    4    1    1
 0.09450700684213484    5    4    2    2
 0.1237325866915463    5    4    3    3
 -0.007365689901477202    5    4    4    3
 0.09770986845222467    5    4    4    4
 -0.05025236952073492    5    4    5    3
 0.08462112289867982    5    4    5    4
 0.1313283811857059    5    4    5    5
 0.3308617068201896    5    5    1    1
 0.3308617068201899    5    5    2    2
 0.4197552416397445    5    5    3    3
 -0.08068152253091834    5    5    4    3
 0.4442078344757855    5    5    4    4
 -0.112960302883592    5    5    5    3
 0.1313283811857055    5    5    5    4
 0.5313974145592835    5    5    5    5
 -4.382603050208974    1    1  0  0
 -4.382603050208976    2    2  0  0
 -3.871863320265096    3    3  0  0
 -0.8918682692942537    4    3  0  0
 -2.4757667254058    4    4  0  0
 -0.2365483388847952    5    3  0  0
 -0.5393274351189499    5    4  0  0
 -1.496381792128458    5    5  0  0
 -85.47957429018818  0  0  0  0
