 &FCI NORB=   5,NELEC= 6,MS2=0,
  ORBSYM=2,3,1,1,1
  ISYM=1,
 &END
 0.8993327620104032    1    1    1    1
 0.8102762999527467    1    1    2    2
 0.6715262791598446    1    1    3    3
 0.1991046209106186    1    1    4    3
 0.4361600853139861    1    1    4    4
 0.06207195002751752    1    1    5    3
 0.09450700684213251    1    1    5    4
 0.3308617068201838    1    1    5    5
 0.04452823102882851    2    1    2    1
 0.8102762999527467    2    2    1    1
 0.8993327620104044    2    2    2    2
 0.6715262791598452    2    2    3    3
 0.1991046209106187    2    2    4    3
 0.4361600853139865    2    2    4    4
 0.06207195002751756    2    2    5    3
 0.09450700684213251    2    2    5    4
 0.3308617068201842    2    2    5    5
 0.03343640202750597    3    1    3    1
 0.01609348826904526    3    1    4    1
 0.007295157495093251    3    1    5    1
 0.033436402027506    3    2    3    2
 0.01609348826904527    3    2    4    2
 0.007295157495093254    3    2    5    2
 0.6715262791598448    3    3    1    1
 0.6715262791598452    3    3    2    2
 0.6637444517133396    3    3    3    3
 0.127637160580311    3    3    4    3
 0.4722639469291594    3    3    4    4
 0.002851172834010693    3    3    5    3
 0.1237325866915424    3    3    5    4
 0.419755241639739    3    3    5    5
 0.01609348826904526    4    1    3    1
 0.01458452544071579    4    1    4    1
 0.005264248891615272    4    1    5    1
 0.01609348826904526    4    2    3    2
 0.01458452544071579    4    2    4    2
 0.005264248891615274    4    2    5    2
 0.1991046209106186    4    3    1    1
 0.1991046209106187    4    3    2    2
 0.127637160580311    4    3    3    3
 0.1390991385096116    4    3    4    3
 -0.00435263704657983    4    3    4    4
 0.07563705692115562    4    3    5    3
 -0.007365689901477381    4    3    5    4
 -0.08068152253092074    4    3    5    5
 0.4361600853139863    4    4    1    1
 0.4361600853139866    4    4    2    2
 0.4722639469291594    4    4    3    3
 -0.004352637046579795    4    4    4    3
 0.4519329971483589    4    4    4    4
 -0.04617278725527486    4    4    5    3
 0.0977098684522288    4    4    5    4
 0.444207834475784    4    4    5    5
 0.007295157495093252    5    1    3    1
 0.005264248891615272    5    1    4    1
 0.003811721282892464    5    1    5    1
 0.007295157495093255    5    2    3    2
 0.005264248891615274    5    2    4    2
 0.00381172128289247    5    2    5    2
 0.06207195002751755    5    3    1    1
 0.06207195002751756    5    3    2    2
 0.002851172834010746    5    3    3    3
 0.0756370569211556    5    3    4    3
 -0.04617278725527488    5    3    4    4
 0.07306772225196397    5    3    5    3
 -0.05025236952073712    5    3    5    4
 -0.1129603028835895    5    3    5    5
 0.09450700684213244    5    4    1    1
 0.09450700684213251    5    4    2    2
 0.1237325866915425    5    4    3    3
 -0.00736568990147734    5    4    4    3
 0.09770986845222895    5    4    4    4
 -0.05025236952073711    5    4    5    3
 0.08462112289868008    5    4    5    4
 0.1313283811857054    5    4    5    5
 0.3308617068201842    5    5    1    1
 0.3308617068201844    5    5    2    2
 0.4197552416397388    5    5    3    3
 -0.08068152253092083    5    5    4    3
 0.4442078344757839    5    5    4    4
 -0.1129603028835894    5    5    5    3
 0.1313283811857055    5    5    5    4
 0.5313974145592785    5    5    5    5
 -4.382603050208947    1    1  0  0
 -4.382603050208949    2    2  0  0
 -3.871863320265037    3    3  0  0
 -0.8918682692942957    4    3  0  0
 -2.475766725405857    4    4  0  0
 -0.2365483388847324    5    3  0  0
 -0.5393274351189372    5    4  0  0
 -1.49638179212844    5    5  0  0
 -85.47957429018834  0  0  0  0
