 &FCI NORB= 6,NELEC= 6,ORBSYM= 1, 1, 1, 1, 1, 1, 
 ISYM= 0 ,
 TREL=.FALSE.
 &END
   0.536449840808463   1   1   1   1
   0.469904401364004   2   2   1   1
   0.469904401364009   3   3   1   1
   0.471731549898941   4   4   1   1
   0.471731549898957   5   5   1   1
   0.490443493551825   6   6   1   1
  0.0211829665612685   2   1   2   1
  0.0211829665612685   1   2   2   1
 0.00438632757039414   6   4   2   1
 0.00139596867103657   6   5   2   1
 0.00438632757039414   4   6   2   1
 0.00139596867103657   5   6   2   1
  0.0211829665612685   3   1   3   1
  0.0211829665612685   1   3   3   1
-0.00139596867103659   6   4   3   1
  0.0043863275703943   6   5   3   1
-0.00139596867103659   4   6   3   1
  0.0043863275703943   5   6   3   1
  0.0289397594976816   4   1   4   1
-0.00101450803172465   6   2   4   1
0.000322871788774134   6   3   4   1
  0.0289397594976816   1   4   4   1
-0.00101450803172464   2   6   4   1
0.000322871788774134   3   6   4   1
  0.0289397594976816   5   1   5   1
-0.000322871788774148   6   2   5   1
-0.00101450803172451   6   3   5   1
  0.0289397594976816   1   5   5   1
-0.000322871788774147   2   6   5   1
-0.00101450803172451   3   6   5   1
  0.0931005504140913   6   1   6   1
   0.087813045042974   4   2   6   1
  0.0279469004129342   5   2   6   1
 -0.0279469004129339   4   3   6   1
  0.0878130450429721   5   3   6   1
  0.0878130450429731   2   4   6   1
 -0.0279469004129339   3   4   6   1
  0.0279469004129341   2   5   6   1
  0.0878130450429722   3   5   6   1
  0.0931005504140916   1   6   6   1
  0.0211829665612685   2   1   1   2
  0.0211829665612685   1   2   1   2
 0.00438632757039413   6   4   1   2
 0.00139596867103657   6   5   1   2
 0.00438632757039414   4   6   1   2
 0.00139596867103657   5   6   1   2
   0.469904401364004   1   1   2   2
   0.507741919311095   2   2   2   2
   0.469441398708016   3   3   2   2
   0.486761834447432   4   4   2   2
  0.0102283851678485   5   4   2   2
  0.0102283851678485   4   5   2   2
   0.457878056785866   5   5   2   2
   0.472514663338381   6   6   2   2
   0.019150260301541   3   2   3   2
   0.019150260301541   2   3   3   2
 -0.0102283851678475   4   4   3   2
  0.0144418888307889   5   4   3   2
  0.0144418888307889   4   5   3   2
  0.0102283851678489   5   5   3   2
   0.087813045042974   6   1   4   2
   0.153289075479174   4   2   4   2
  0.0439692139871571   5   2   4   2
 -0.0439692139871566   4   3   4   2
   0.123025686537968   5   3   4   2
   0.153289075479173   2   4   4   2
 -0.0439692139871566   3   4   4   2
  0.0439692139871569   2   5   4   2
   0.123025686537969   3   5   4   2
  0.0878130450429742   1   6   4   2
  0.0279469004129342   6   1   5   2
  0.0439692139871571   4   2   5   2
  0.0291250965207492   5   2   5   2
 0.00113829242045374   4   3   5   2
  0.0439692139871562   5   3   5   2
  0.0439692139871566   2   4   5   2
 0.00113829242045374   3   4   5   2
  0.0291250965207492   2   5   5   2
  0.0439692139871562   3   5   5   2
  0.0279469004129343   1   6   5   2
-0.00101450803172465   4   1   6   2
-0.000322871788774148   5   1   6   2
  0.0267120415793317   6   2   6   2
-0.00101450803172465   1   4   6   2
-0.000322871788774146   1   5   6   2
  0.0267120415793317   2   6   6   2
  0.0211829665612685   3   1   1   3
  0.0211829665612685   1   3   1   3
-0.00139596867103658   6   4   1   3
 0.00438632757039431   6   5   1   3
-0.00139596867103658   4   6   1   3
  0.0043863275703943   5   6   1   3
   0.019150260301541   3   2   2   3
   0.019150260301541   2   3   2   3
 -0.0102283851678475   4   4   2   3
  0.0144418888307889   5   4   2   3
  0.0144418888307889   4   5   2   3
  0.0102283851678489   5   5   2   3
   0.469904401364009   1   1   3   3
   0.469441398708016   2   2   3   3
     0.5077419193111   3   3   3   3
   0.457878056785858   4   4   3   3
 -0.0102283851678482   5   4   3   3
 -0.0102283851678482   4   5   3   3
   0.486761834447445   5   5   3   3
   0.472514663338386   6   6   3   3
 -0.0279469004129339   6   1   4   3
 -0.0439692139871566   4   2   4   3
 0.00113829242045374   5   2   4   3
  0.0291250965207489   4   3   4   3
 -0.0439692139871557   5   3   4   3
 -0.0439692139871562   2   4   4   3
  0.0291250965207489   3   4   4   3
 0.00113829242045378   2   5   4   3
 -0.0439692139871558   3   5   4   3
  -0.027946900412934   1   6   4   3
  0.0878130450429721   6   1   5   3
   0.123025686537968   4   2   5   3
  0.0439692139871562   5   2   5   3
 -0.0439692139871557   4   3   5   3
   0.153289075479168   5   3   5   3
   0.123025686537967   2   4   5   3
 -0.0439692139871557   3   4   5   3
   0.043969213987156   2   5   5   3
   0.153289075479168   3   5   5   3
  0.0878130450429724   1   6   5   3
0.000322871788774134   4   1   6   3
-0.00101450803172451   5   1   6   3
  0.0267120415793309   6   3   6   3
0.000322871788774136   1   4   6   3
-0.00101450803172451   1   5   6   3
  0.0267120415793309   3   6   6   3
  0.0289397594976816   4   1   1   4
-0.00101450803172465   6   2   1   4
0.000322871788774136   6   3   1   4
  0.0289397594976816   1   4   1   4
-0.00101450803172465   2   6   1   4
0.000322871788774135   3   6   1   4
  0.0878130450429731   6   1   2   4
   0.153289075479173   4   2   2   4
  0.0439692139871566   5   2   2   4
 -0.0439692139871562   4   3   2   4
   0.123025686537967   5   3   2   4
   0.153289075479171   2   4   2   4
 -0.0439692139871562   3   4   2   4
  0.0439692139871565   2   5   2   4
   0.123025686537967   3   5   2   4
  0.0878130450429734   1   6   2   4
 -0.0279469004129339   6   1   3   4
 -0.0439692139871566   4   2   3   4
 0.00113829242045374   5   2   3   4
  0.0291250965207489   4   3   3   4
 -0.0439692139871557   5   3   3   4
 -0.0439692139871562   2   4   3   4
  0.0291250965207489   3   4   3   4
 0.00113829242045378   2   5   3   4
 -0.0439692139871558   3   5   3   4
  -0.027946900412934   1   6   3   4
   0.471731549898941   1   1   4   4
   0.486761834447432   2   2   4   4
 -0.0102283851678475   3   2   4   4
 -0.0102283851678475   2   3   4   4
   0.457878056785858   3   3   4   4
     0.4881839626966   4   4   4   4
   0.450796269638237   5   5   4   4
   0.458797194174353   6   6   4   4
  0.0102283851678485   2   2   5   4
  0.0144418888307889   3   2   5   4
  0.0144418888307889   2   3   5   4
 -0.0102283851678482   3   3   5   4
  0.0186938465291882   5   4   5   4
  0.0186938465291882   4   5   5   4
 0.00438632757039414   2   1   6   4
-0.00139596867103659   3   1   6   4
 0.00438632757039413   1   2   6   4
-0.00139596867103658   1   3   6   4
  0.0287053880352757   6   4   6   4
  0.0287053880352757   4   6   6   4
  0.0289397594976816   5   1   1   5
-0.000322871788774146   6   2   1   5
-0.00101450803172451   6   3   1   5
  0.0289397594976815   1   5   1   5
-0.000322871788774147   2   6   1   5
-0.00101450803172451   3   6   1   5
  0.0279469004129341   6   1   2   5
  0.0439692139871569   4   2   2   5
  0.0291250965207492   5   2   2   5
 0.00113829242045378   4   3   2   5
   0.043969213987156   5   3   2   5
  0.0439692139871565   2   4   2   5
 0.00113829242045378   3   4   2   5
  0.0291250965207491   2   5   2   5
  0.0439692139871561   3   5   2   5
  0.0279469004129342   1   6   2   5
  0.0878130450429722   6   1   3   5
   0.123025686537969   4   2   3   5
  0.0439692139871562   5   2   3   5
 -0.0439692139871558   4   3   3   5
   0.153289075479168   5   3   3   5
   0.123025686537967   2   4   3   5
 -0.0439692139871558   3   4   3   5
  0.0439692139871561   2   5   3   5
   0.153289075479168   3   5   3   5
  0.0878130450429726   1   6   3   5
  0.0102283851678485   2   2   4   5
  0.0144418888307889   3   2   4   5
  0.0144418888307889   2   3   4   5
 -0.0102283851678482   3   3   4   5
  0.0186938465291882   5   4   4   5
  0.0186938465291882   4   5   4   5
   0.471731549898957   1   1   5   5
   0.457878056785866   2   2   5   5
  0.0102283851678489   3   2   5   5
  0.0102283851678489   2   3   5   5
   0.486761834447445   3   3   5   5
   0.450796269638237   4   4   5   5
   0.488183962696624   5   5   5   5
   0.458797194174367   6   6   5   5
 0.00139596867103657   2   1   6   5
  0.0043863275703943   3   1   6   5
 0.00139596867103657   1   2   6   5
 0.00438632757039431   1   3   6   5
   0.028705388035275   6   5   6   5
   0.028705388035275   5   6   6   5
  0.0931005504140916   6   1   1   6
  0.0878130450429742   4   2   1   6
  0.0279469004129343   5   2   1   6
  -0.027946900412934   4   3   1   6
  0.0878130450429724   5   3   1   6
  0.0878130450429734   2   4   1   6
  -0.027946900412934   3   4   1   6
  0.0279469004129342   2   5   1   6
  0.0878130450429726   3   5   1   6
  0.0931005504140918   1   6   1   6
-0.00101450803172464   4   1   2   6
-0.000322871788774147   5   1   2   6
  0.0267120415793317   6   2   2   6
-0.00101450803172465   1   4   2   6
-0.000322871788774147   1   5   2   6
  0.0267120415793317   2   6   2   6
0.000322871788774134   4   1   3   6
-0.00101450803172451   5   1   3   6
  0.0267120415793309   6   3   3   6
0.000322871788774135   1   4   3   6
-0.00101450803172451   1   5   3   6
  0.0267120415793309   3   6   3   6
 0.00438632757039414   2   1   4   6
-0.00139596867103659   3   1   4   6
 0.00438632757039414   1   2   4   6
-0.00139596867103658   1   3   4   6
  0.0287053880352757   6   4   4   6
  0.0287053880352757   4   6   4   6
 0.00139596867103657   2   1   5   6
  0.0043863275703943   3   1   5   6
 0.00139596867103657   1   2   5   6
  0.0043863275703943   1   3   5   6
   0.028705388035275   6   5   5   6
   0.028705388035275   5   6   5   6
   0.490443493551825   1   1   6   6
   0.472514663338381   2   2   6   6
   0.472514663338386   3   3   6   6
   0.458797194174353   4   4   6   6
   0.458797194174367   5   5   6   6
   0.498787887546347   6   6   6   6
-2.96961768855523   1   1   0   0
-2.86104538669017   2   2   0   0
-2.86104538669014   3   3   0   0
-2.58492631085291   4   4   0   0
-2.5849263108529   5   5   0   0
-2.3229035908826   6   6   0   0
-98.3339467443989   0   0   0   0
