 &FCI NORB=   6,NELEC= 6,MS2=0,
  ORBSYM=1,3,2,6,7,5
  ISYM=1,
 &END
 0.5406487462037872    1    1    1    1
 0.47182119194084    1    1    2    2
 0.47182119194084    1    1    3    3
 0.4724600680869623    1    1    4    4
 0.4724600680869622    1    1    5    5
 0.4746776603117643    1    1    6    6
 0.02088074244972838    2    1    2    1
 0.00525419930405008    2    1    6    5
 0.4718211919408399    2    2    1    1
 0.5084609413936823    2    2    2    2
 0.4699398425322764    2    2    3    3
 0.4535701421772086    2    2    4    4
 0.48875932715565    2    2    5    5
 0.4550866343984491    2    2    6    6
 0.02088074244972839    3    1    3    1
 0.005254199304050061    3    1    6    4
 0.01926054943070299    3    2    3    2
 0.01759459248922075    3    2    5    4
 0.47182119194084    3    3    1    1
 0.4699398425322764    3    3    2    2
 0.5084609413936825    3    3    3    3
 0.4887593271556501    3    3    4    4
 0.4535701421772086    3    3    5    5
 0.4550866343984497    3    3    6    6
 0.02848213225780811    4    1    4    1
 -0.000809112382106978    4    1    6    3
 0.01496307814605687    4    2    4    2
 0.01496307814605687    4    2    5    3
 0.1651110677136375    4    3    4    3
 0.1351849114215238    4    3    5    2
 0.08775007981398056    4    3    6    1
 0.4724600680869622    4    4    1    1
 0.4535701421772085    4    4    2    2
 0.48875932715565    4    4    3    3
 0.4862207041858106    4    4    4    4
 0.4489726868006587    4    4    5    5
 0.4418978037367853    4    4    6    6
 0.02848213225780811    5    1    5    1
 -0.0008091123821069751    5    1    6    2
 0.1351849114215238    5    2    4    3
 0.1651110677136375    5    2    5    2
 0.08775007981398053    5    2    6    1
 0.01496307814605687    5    3    4    2
 0.01496307814605687    5    3    5    3
 0.01759459248922075    5    4    3    2
 0.01862400869257599    5    4    5    4
 0.4724600680869622    5    5    1    1
 0.4887593271556499    5    5    2    2
 0.4535701421772086    5    5    3    3
 0.4489726868006588    5    5    4    4
 0.4862207041858105    5    5    5    5
 0.4418978037367858    5    5    6    6
 0.08775007981398057    6    1    4    3
 0.08775007981398056    6    1    5    2
 0.0859604703745447    6    1    6    1
 -0.0008091123821069782    6    2    5    1
 0.02498297561321312    6    2    6    2
 -0.0008091123821069799    6    3    4    1
 0.02498297561321313    6    3    6    3
 0.005254199304050068    6    4    3    1
 0.02675538308535521    6    4    6    4
 0.005254199304050066    6    5    2    1
 0.02675538308535522    6    5    6    5
 0.4746776603117645    6    6    1    1
 0.45508663439845    6    6    2    2
 0.4550866343984501    6    6    3    3
 0.4418978037367856    6    6    4    4
 0.4418978037367856    6    6    5    5
 0.4661843376355745    6    6    6    6
 -2.974586393449832    1    1  0  0
 -2.858989186363504    2    2  0  0
 -2.858989186363504    3    3  0  0
 -2.575903828526382    4    4  0  0
 -2.575903828526382    5    5  0  0
 -2.245533053331252    6    6  0  0
 -98.46644393370157  0  0  0  0
