  &FCI NORB=  6,NELEC=  8,MS2=  0,
  ORBSYM= 1, 1, 1, 1, 1, 1,
  ISYM=0
 &END
    0.75132124044        1    1    1    1
    0.32107592937E-01    2    1    2    1
    0.61234491005        2    2    1    1
    0.59904319597        2    2    2    2
    0.32107592937E-01    3    1    3    1
    0.22199544178E-01    3    2    3    2
    0.61234491005        3    3    1    1
    0.55464410761        3    3    2    2
    0.59904319597        3    3    3    3
   -0.12906234678E-10    4    1    2    1
    0.18867508161E-01    4    1    4    1
    0.21146497758E-09    4    2    1    1
    0.26779912965E-10    4    2    2    2
    0.22279979015E-10    4    2    3    3
    0.21890839214        4    2    4    2
   -0.14055539815E-10    4    3    1    1
   -0.13537018294E-01    4    3    4    2
    0.19965502155E-01    4    3    4    3
    0.60515694761        4    4    1    1
    0.59869421612        4    4    2    2
   -0.29168705261E-02    4    4    3    2
    0.55582726864        4    4    3    3
   -0.19848448115E-10    4    4    4    2
    0.61445587667        4    4    4    4
   -0.12926563130E-10    5    1    3    1
    0.18867508161E-01    5    1    5    1
    0.14591785832E-10    5    2    1    1
    0.13537018294E-01    5    2    4    2
    0.18131707904E-01    5    2    4    3
    0.19965502155E-01    5    2    5    2
    0.21142197855E-09    5    3    1    1
    0.22314742852E-10    5    3    2    2
    0.26685361841E-10    5    3    3    3
    0.18081118208        5    3    4    2
   -0.13537018294E-01    5    3    4    3
   -0.16317094641E-10    5    3    4    4
    0.13537018294E-01    5    3    5    2
    0.21890839214        5    3    5    3
    0.29168705261E-02    5    4    2    2
    0.21433473737E-01    5    4    3    2
   -0.29168705261E-02    5    4    3    3
    0.23541817439E-01    5    4    5    4
    0.60515694761        5    5    1    1
    0.55582726864        5    5    2    2
    0.29168705260E-02    5    5    3    2
    0.59869421612        5    5    3    3
   -0.16309265001E-10    5    5    4    2
    0.56737224179        5    5    4    4
   -0.19878626254E-10    5    5    5    3
    0.61445587667        5    5    5    5
   -0.83180130727E-10    6    1    2    2
   -0.83212101237E-10    6    1    3    3
    0.18390166982        6    1    4    2
   -0.12456133896E-01    6    1    4    3
   -0.69785298409E-10    6    1    4    4
    0.12456133896E-01    6    1    5    2
    0.18390166982        6    1    5    3
   -0.69792138648E-10    6    1    5    5
    0.23909576859        6    1    6    1
   -0.38529269883E-10    6    2    2    1
    0.18440084192E-01    6    2    4    1
    0.12489944108E-02    6    2    5    1
    0.31027963362E-01    6    2    6    2
   -0.38480322458E-10    6    3    3    1
   -0.12489944109E-02    6    3    4    1
    0.18440084192E-01    6    3    5    1
    0.31027963362E-01    6    3    6    3
    0.29083334411E-01    6    4    2    1
   -0.19698891693E-02    6    4    3    1
   -0.50828535001E-10    6    4    4    1
    0.34534558022E-01    6    4    6    4
    0.19698891691E-02    6    5    2    1
    0.29083334411E-01    6    5    3    1
   -0.50829273216E-10    6    5    5    1
    0.34534558022E-01    6    5    6    5
    0.78619458539        6    6    1    1
    0.65361504717        6    6    2    2
    0.65361504717        6    6    3    3
    0.79582180101E-10    6    6    4    2
    0.65466447217        6    6    4    4
    0.79547269830E-10    6    6    5    3
    0.65466447217        6    6    5    5
   -0.14476299404E-09    6    6    6    1
    0.86383676008        6    6    6    6
    -5.2212063804        1    1    0    0
    -4.6040831538        2    2    0    0
    -4.6040831538        3    3    0    0
   -0.47794825563E-09    4    2    0    0
    0.31184830759E-10    4    3    0    0
    -4.3403187772        4    4    0    0
   -0.33581441447E-10    5    2    0    0
   -0.47775673175E-09    5    3    0    0
    -4.3403187772        5    5    0    0
    0.33008053929E-09    6    1    0    0
    -4.5438197555        6    6    0    0
    -128.17259552        0    0    0    0
