 &FCI NORB= 18,NELEC= 8,MS2= 0,
  ORBSYM=1,1,1,1,1,1,1,1,1,1,1,1,1,1,1,1,1,1,
  ISYM=1
  UHF=.TRUE.
 &END
    0.88361738054732E+00         1     1     1     1
    0.13108638030599E-01         2     1     1     1
    0.30174529038088E-04         3     1     1     1
   -0.46754682231457E-16         4     1     1     1
   -0.10683427437697E+00         5     1     1     1
    0.60251205506888E-01         6     1     1     1
    0.21737793242196E-01         7     1     1     1
   -0.29860012399534E-02         8     1     1     1
   -0.12643237648385E-16         9     1     1     1
    0.13108638030599E-01         1     2     1     1
    0.79932150853283E+00         2     2     1     1
    0.81231751727194E-03         3     2     1     1
    0.96084843289249E-17         4     2     1     1
   -0.91990875294032E-01         5     2     1     1
    0.98454171082123E-01         6     2     1     1
   -0.17272036873045E+00         7     2     1     1
    0.22383811280193E-01         8     2     1     1
    0.46213950099444E-17         9     2     1     1
    0.30174529038088E-04         1     3     1     1
    0.81231751727194E-03         2     3     1     1
    0.84642693735422E+00         3     3     1     1
   -0.26848841388525E-16         4     3     1     1
    0.99626614141478E-03         5     3     1     1
   -0.59628162538765E-03         6     3     1     1
   -0.27405466171196E-01         7     3     1     1
   -0.20682455640048E+00         8     3     1     1
   -0.75031063312403E-16         9     3     1     1
   -0.46755009969096E-16         1     4     1     1
    0.95042900849458E-17         2     4     1     1
   -0.49398891218828E-16         3     4     1     1
    0.84593354807775E+00         4     4     1     1
    0.78151090589337E-17         5     4     1     1
    0.22031417364729E-16         6     4     1     1
   -0.25688095047819E-16         7     4     1     1
    0.17562714887129E-15         8     4     1     1
   -0.20844063059717E+00         9     4     1     1
   -0.10683427437697E+00         1     5     1     1
   -0.91990875294032E-01         2     5     1     1
    0.99626614141478E-03         3     5     1     1
    0.77854439201031E-17         4     5     1     1
    0.38976958861636E+00         5     5     1     1
   -0.12652705849572E+00         6     5     1     1
    0.43751611532472E-01         7     5     1     1
   -0.63125316898686E-02         8     5     1     1
   -0.41228134452263E-16         9     5     1     1
    0.60251205506888E-01         1     6     1     1
    0.98454171082123E-01         2     6     1     1
   -0.59628162538765E-03         3     6     1     1
    0.22065223979973E-16         4     6     1     1
   -0.12652705849572E+00         5     6     1     1
    0.56832305520718E+00         6     6     1     1
   -0.34826577770171E-01         7     6     1     1
    0.47854953092889E-02         8     6     1     1
    0.20827080351956E-16         9     6     1     1
    0.21737793242197E-01         1     7     1     1
   -0.17272036873045E+00         2     7     1     1
   -0.27405466171196E-01         3     7     1     1
   -0.34957402613573E-16         4     7     1     1
    0.43751611532473E-01         5     7     1     1
   -0.34826577770171E-01         6     7     1     1
    0.60737022522924E+00         7     7     1     1
    0.11809430002755E-01         8     7     1     1
    0.22766102870191E-16         9     7     1     1
   -0.29860012399534E-02         1     8     1     1
    0.22383811280193E-01         2     8     1     1
   -0.20682455640048E+00         3     8     1     1
    0.13182550054266E-15         4     8     1     1
   -0.63125316898686E-02         5     8     1     1
    0.47854953092888E-02         6     8     1     1
    0.11809430002755E-01         7     8     1     1
    0.69151241021047E+00         8     8     1     1
   -0.94013005834802E-16         9     8     1     1
   -0.12633593331111E-16         1     9     1     1
    0.53840347989271E-17         2     9     1     1
   -0.80230638612355E-16         3     9     1     1
   -0.20844063059717E+00         4     9     1     1
   -0.41212569540924E-16         5     9     1     1
    0.20772468610492E-16         6     9     1     1
    0.22764794657572E-16         7     9     1     1
   -0.80137255333903E-16         8     9     1     1
    0.69325194553609E+00         9     9     1     1
    0.88361738054732E+00        10    10     1     1
    0.13108638030599E-01        11    10     1     1
    0.30174529038088E-04        12    10     1     1
   -0.46755009969096E-16        13    10     1     1
   -0.10683427437697E+00        14    10     1     1
    0.60251205506888E-01        15    10     1     1
    0.21737793242197E-01        16    10     1     1
   -0.29860012399534E-02        17    10     1     1
   -0.12633593331111E-16        18    10     1     1
    0.13108638030599E-01        10    11     1     1
    0.79932150853283E+00        11    11     1     1
    0.81231751727194E-03        12    11     1     1
    0.95042900849458E-17        13    11     1     1
   -0.91990875294032E-01        14    11     1     1
    0.98454171082123E-01        15    11     1     1
   -0.17272036873045E+00        16    11     1     1
    0.22383811280193E-01        17    11     1     1
    0.53840347989271E-17        18    11     1     1
    0.30174529038088E-04        10    12     1     1
    0.81231751727194E-03        11    12     1     1
    0.84642693735422E+00        12    12     1     1
   -0.49398891218828E-16        13    12     1     1
    0.99626614141478E-03        14    12     1     1
   -0.59628162538765E-03        15    12     1     1
   -0.27405466171196E-01        16    12     1     1
   -0.20682455640048E+00        17    12     1     1
   -0.80230638612355E-16        18    12     1     1
   -0.46754682231457E-16        10    13     1     1
    0.96084843289249E-17        11    13     1     1
   -0.26848841388525E-16        12    13     1     1
    0.84593354807775E+00        13    13     1     1
    0.77854439201031E-17        14    13     1     1
    0.22065223979973E-16        15    13     1     1
   -0.34957402613573E-16        16    13     1     1
    0.13182550054266E-15        17    13     1     1
   -0.20844063059717E+00        18    13     1     1
   -0.10683427437697E+00        10    14     1     1
   -0.91990875294032E-01        11    14     1     1
    0.99626614141478E-03        12    14     1     1
    0.78151090589337E-17        13    14     1     1
    0.38976958861636E+00        14    14     1     1
   -0.12652705849572E+00        15    14     1     1
    0.43751611532473E-01        16    14     1     1
   -0.63125316898686E-02        17    14     1     1
   -0.41212569540924E-16        18    14     1     1
    0.60251205506888E-01        10    15     1     1
    0.98454171082123E-01        11    15     1     1
   -0.59628162538765E-03        12    15     1     1
    0.22031417364729E-16        13    15     1     1
   -0.12652705849572E+00        14    15     1     1
    0.56832305520718E+00        15    15     1     1
   -0.34826577770171E-01        16    15     1     1
    0.47854953092888E-02        17    15     1     1
    0.20772468610492E-16        18    15     1     1
    0.21737793242196E-01        10    16     1     1
   -0.17272036873045E+00        11    16     1     1
   -0.27405466171196E-01        12    16     1     1
   -0.25688095047819E-16        13    16     1     1
    0.43751611532472E-01        14    16     1     1
   -0.34826577770171E-01        15    16     1     1
    0.60737022522924E+00        16    16     1     1
    0.11809430002755E-01        17    16     1     1
    0.22764794657572E-16        18    16     1     1
   -0.29860012399534E-02        10    17     1     1
    0.22383811280193E-01        11    17     1     1
   -0.20682455640048E+00        12    17     1     1
    0.17562714887129E-15        13    17     1     1
   -0.63125316898686E-02        14    17     1     1
    0.47854953092889E-02        15    17     1     1
    0.11809430002755E-01        16    17     1     1
    0.69151241021047E+00        17    17     1     1
   -0.80137255333903E-16        18    17     1     1
   -0.12643237648385E-16        10    18     1     1
    0.46213950099444E-17        11    18     1     1
   -0.75031063312403E-16        12    18     1     1
   -0.20844063059717E+00        13    18     1     1
   -0.41228134452263E-16        14    18     1     1
    0.20827080351956E-16        15    18     1     1
    0.22766102870191E-16        16    18     1     1
   -0.94013005834802E-16        17    18     1     1
    0.69325194553609E+00        18    18     1     1
    0.13108638030599E-01         1     1     2     1
    0.16714105643629E+00         2     1     2     1
   -0.14015743154126E-02         3     1     2     1
    0.73066237651989E-17         4     1     2     1
   -0.27304987677147E-01         5     1     2     1
    0.22485341370202E-01         6     1     2     1
   -0.44957171911859E-01         7     1     2     1
    0.64118783061423E-02         8     1     2     1
   -0.82464734131403E-17         9     1     2     1
    0.16714105643629E+00         1     2     2     1
   -0.34571772597042E-01         2     2     2     1
   -0.17853984380660E-03         3     2     2     1
   -0.14926498193421E-16         4     2     2     1
    0.16301867808153E-01         5     2     2     1
   -0.81737493079239E-01         6     2     2     1
   -0.14938540286643E-01         7     2     2     1
    0.24206379164544E-02         8     2     2     1
   -0.60331567227540E-16         9     2     2     1
   -0.14015743154126E-02         1     3     2     1
   -0.17853984380660E-03         2     3     2     1
   -0.39941405722473E-01         3     3     2     1
   -0.19664630164737E-16         4     3     2     1
   -0.23420544458504E-03         5     3     2     1
    0.78333244293039E-03         6     3     2     1
    0.60324058753445E-02         7     3     2     1
    0.42828175409713E-01         8     3     2     1
    0.21223275359588E-16         9     3     2     1
    0.73075578754083E-17         1     4     2     1
   -0.14915779079681E-16         2     4     2     1
   -0.23261021916116E-16         3     4     2     1
   -0.39885709435022E-01         4     4     2     1
    0.58542859879464E-17         5     4     2     1
    0.48207069544496E-17         6     4     2     1
   -0.74695448575853E-17         7     4     2     1
   -0.24078208169502E-16         8     4     2     1
    0.43440886198131E-01         9     4     2     1
   -0.27304987677147E-01         1     5     2     1
    0.16301867808153E-01         2     5     2     1
   -0.23420544458504E-03         3     5     2     1
    0.58552948317741E-17         4     5     2     1
    0.46679110220950E-01         5     5     2     1
   -0.26463491912567E-01         6     5     2     1
    0.32360063505865E-01         7     5     2     1
   -0.45218545503516E-02         8     5     2     1
    0.25833316354395E-16         9     5     2     1
    0.22485341370202E-01         1     6     2     1
   -0.81737493079239E-01         2     6     2     1
    0.78333244293039E-03         3     6     2     1
    0.48239876532673E-17         4     6     2     1
   -0.26463491912567E-01         5     6     2     1
    0.97403632455096E-01         6     6     2     1
    0.14138624454261E-01         7     6     2     1
   -0.19106252062429E-02         8     6     2     1
   -0.15208532500400E-16         9     6     2     1
   -0.44957171911859E-01         1     7     2     1
   -0.14938540286643E-01         2     7     2     1
    0.60324058753445E-02         3     7     2     1
   -0.72997206882822E-17         4     7     2     1
    0.32360063505865E-01         5     7     2     1
    0.14138624454261E-01         6     7     2     1
   -0.64776860114755E-01         7     7     2     1
    0.96596997378741E-02         8     7     2     1
    0.77088937890896E-17         9     7     2     1
    0.64118783061423E-02         1     8     2     1
    0.24206379164544E-02         2     8     2     1
    0.42828175409713E-01         3     8     2     1
   -0.23297632286801E-16         4     8     2     1
   -0.45218545503516E-02         5     8     2     1
   -0.19106252062429E-02         6     8     2     1
    0.96596997378741E-02         7     8     2     1
    0.42307236252674E-02         8     8     2     1
   -0.51821503899721E-16         9     8     2     1
   -0.82452845198040E-17         1     9     2     1
   -0.60305449027373E-16         2     9     2     1
    0.18490522104025E-16         3     9     2     1
    0.43440886198131E-01         4     9     2     1
    0.25831548565553E-16         5     9     2     1
   -0.15204818947562E-16         6     9     2     1
    0.74993549676600E-17         7     9     2     1
   -0.50035403780505E-16         8     9     2     1
    0.59620418223528E-02         9     9     2     1
    0.13108638030599E-01        10    10     2     1
    0.16714105643629E+00        11    10     2     1
   -0.14015743154126E-02        12    10     2     1
    0.73075578754083E-17        13    10     2     1
   -0.27304987677147E-01        14    10     2     1
    0.22485341370202E-01        15    10     2     1
   -0.44957171911859E-01        16    10     2     1
    0.64118783061423E-02        17    10     2     1
   -0.82452845198040E-17        18    10     2     1
    0.16714105643629E+00        10    11     2     1
   -0.34571772597042E-01        11    11     2     1
   -0.17853984380660E-03        12    11     2     1
   -0.14915779079681E-16        13    11     2     1
    0.16301867808153E-01        14    11     2     1
   -0.81737493079239E-01        15    11     2     1
   -0.14938540286643E-01        16    11     2     1
    0.24206379164544E-02        17    11     2     1
   -0.60305449027373E-16        18    11     2     1
   -0.14015743154126E-02        10    12     2     1
   -0.17853984380660E-03        11    12     2     1
   -0.39941405722473E-01        12    12     2     1
   -0.23261021916116E-16        13    12     2     1
   -0.23420544458504E-03        14    12     2     1
    0.78333244293039E-03        15    12     2     1
    0.60324058753445E-02        16    12     2     1
    0.42828175409713E-01        17    12     2     1
    0.18490522104025E-16        18    12     2     1
    0.73066237651989E-17        10    13     2     1
   -0.14926498193421E-16        11    13     2     1
   -0.19664630164737E-16        12    13     2     1
   -0.39885709435022E-01        13    13     2     1
    0.58552948317741E-17        14    13     2     1
    0.48239876532673E-17        15    13     2     1
   -0.72997206882822E-17        16    13     2     1
   -0.23297632286801E-16        17    13     2     1
    0.43440886198131E-01        18    13     2     1
   -0.27304987677147E-01        10    14     2     1
    0.16301867808153E-01        11    14     2     1
   -0.23420544458504E-03        12    14     2     1
    0.58542859879464E-17        13    14     2     1
    0.46679110220950E-01        14    14     2     1
   -0.26463491912567E-01        15    14     2     1
    0.32360063505865E-01        16    14     2     1
   -0.45218545503516E-02        17    14     2     1
    0.25831548565553E-16        18    14     2     1
    0.22485341370202E-01        10    15     2     1
   -0.81737493079239E-01        11    15     2     1
    0.78333244293039E-03        12    15     2     1
    0.48207069544496E-17        13    15     2     1
   -0.26463491912567E-01        14    15     2     1
    0.97403632455096E-01        15    15     2     1
    0.14138624454261E-01        16    15     2     1
   -0.19106252062429E-02        17    15     2     1
   -0.15204818947562E-16        18    15     2     1
   -0.44957171911859E-01        10    16     2     1
   -0.14938540286643E-01        11    16     2     1
    0.60324058753445E-02        12    16     2     1
   -0.74695448575853E-17        13    16     2     1
    0.32360063505865E-01        14    16     2     1
    0.14138624454261E-01        15    16     2     1
   -0.64776860114755E-01        16    16     2     1
    0.96596997378741E-02        17    16     2     1
    0.74993549676600E-17        18    16     2     1
    0.64118783061423E-02        10    17     2     1
    0.24206379164544E-02        11    17     2     1
    0.42828175409713E-01        12    17     2     1
   -0.24078208169502E-16        13    17     2     1
   -0.45218545503516E-02        14    17     2     1
   -0.19106252062429E-02        15    17     2     1
    0.96596997378741E-02        16    17     2     1
    0.42307236252674E-02        17    17     2     1
   -0.50035403780505E-16        18    17     2     1
   -0.82464734131403E-17        10    18     2     1
   -0.60331567227540E-16        11    18     2     1
    0.21223275359588E-16        12    18     2     1
    0.43440886198131E-01        13    18     2     1
    0.25833316354395E-16        14    18     2     1
   -0.15208532500400E-16        15    18     2     1
    0.77088937890896E-17        16    18     2     1
   -0.51821503899721E-16        17    18     2     1
    0.59620418223528E-02        18    18     2     1
    0.30174529038087E-04         1     1     3     1
   -0.14015743154126E-02         2     1     3     1
    0.11885385925395E-04         3     1     3     1
   -0.76085512487561E-19         4     1     3     1
    0.17632521020101E-03         5     1     3     1
   -0.11744172830647E-03         6     1     3     1
    0.36891682477014E-03         7     1     3     1
   -0.52624139561608E-04         8     1     3     1
    0.86437414184605E-19         9     1     3     1
   -0.14015743154126E-02         1     2     3     1
    0.35511147388373E-03         2     2     3     1
    0.24014388927431E-05         3     2     3     1
    0.42862984714286E-19         4     2     3     1
   -0.18689327346463E-03         5     2     3     1
    0.76840298082040E-03         6     2     3     1
    0.93931752665939E-04         7     2     3     1
   -0.16652068255586E-04         8     2     3     1
    0.58466314907885E-18         9     2     3     1
    0.11885385925395E-04         1     3     3     1
    0.24014388927431E-05         2     3     3     1
    0.48197411026325E-03         3     3     3     1
   -0.92524726861337E-17         4     3     3     1
    0.24841884242199E-05         5     3     3     1
   -0.72856172560695E-05         6     3     3     1
   -0.62396384717131E-04         7     3     3     1
   -0.44576353155174E-03         8     3     3     1
    0.82117901212951E-17         9     3     3     1
   -0.74031814187542E-19         1     4     3     1
    0.12831962115087E-18         2     4     3     1
    0.16535998752813E-18         3     4     3     1
    0.48132201262623E-03         4     4     3     1
   -0.48311839692913E-19         5     4     3     1
   -0.32322220566524E-19         6     4     3     1
    0.55551557240678E-19         7     4     3     1
    0.22996549514769E-18         8     4     3     1
   -0.45169917055681E-03         9     4     3     1
    0.17632521020101E-03         1     5     3     1
   -0.18689327346463E-03         2     5     3     1
    0.24841884242199E-05         3     5     3     1
   -0.53593738464979E-19         4     5     3     1
   -0.39704387280373E-03         5     5     3     1
    0.21418520915737E-03         6     5     3     1
   -0.26831775273634E-03         7     5     3     1
    0.37453339066395E-04         8     5     3     1
   -0.23172522783127E-18         9     5     3     1
   -0.11744172830647E-03         1     6     3     1
    0.76840298082040E-03         2     6     3     1
   -0.72856172560695E-05         3     6     3     1
   -0.35957050530112E-19         4     6     3     1
    0.21418520915737E-03         5     6     3     1
   -0.86008646138332E-03         6     6     3     1
   -0.14363231454033E-03         7     6     3     1
    0.19422128244710E-04         8     6     3     1
    0.12458044019235E-18         9     6     3     1
    0.36891682477014E-03         1     7     3     1
    0.93931752665939E-04         2     7     3     1
   -0.62396384717131E-04         3     7     3     1
    0.12124565309033E-17         4     7     3     1
   -0.26831775273634E-03         5     7     3     1
   -0.14363231454033E-03         6     7     3     1
    0.60804812682512E-03         7     7     3     1
   -0.80192532856285E-04         8     7     3     1
   -0.73733954654730E-18         9     7     3     1
   -0.52624139561608E-04         1     8     3     1
   -0.16652068255586E-04         2     8     3     1
   -0.44576353155174E-03         3     8     3     1
    0.85807702097890E-17         4     8     3     1
    0.37453339066395E-04         5     8     3     1
    0.19422128244710E-04         6     8     3     1
   -0.80192532856286E-04         7     8     3     1
    0.34508363052578E-04         8     8     3     1
   -0.46286952613880E-17         9     8     3     1
    0.84827516247258E-19         1     9     3     1
    0.50943297640913E-18         2     9     3     1
   -0.18056449216671E-18         3     9     3     1
   -0.45169917055681E-03         4     9     3     1
   -0.23760433292067E-18         5     9     3     1
    0.12486400473325E-18         6     9     3     1
   -0.31582498443015E-19         7     9     3     1
    0.40921393722047E-18         8     9     3     1
    0.19742569323634E-04         9     9     3     1
    0.30174529038087E-04        10    10     3     1
   -0.14015743154126E-02        11    10     3     1
    0.11885385925395E-04        12    10     3     1
   -0.74031814187542E-19        13    10     3     1
    0.17632521020101E-03        14    10     3     1
   -0.11744172830647E-03        15    10     3     1
    0.36891682477014E-03        16    10     3     1
   -0.52624139561608E-04        17    10     3     1
    0.84827516247258E-19        18    10     3     1
   -0.14015743154126E-02        10    11     3     1
    0.35511147388373E-03        11    11     3     1
    0.24014388927431E-05        12    11     3     1
    0.12831962115087E-18        13    11     3     1
   -0.18689327346463E-03        14    11     3     1
    0.76840298082040E-03        15    11     3     1
    0.93931752665939E-04        16    11     3     1
   -0.16652068255586E-04        17    11     3     1
    0.50943297640913E-18        18    11     3     1
    0.11885385925395E-04        10    12     3     1
    0.24014388927431E-05        11    12     3     1
    0.48197411026325E-03        12    12     3     1
    0.16535998752813E-18        13    12     3     1
    0.24841884242199E-05        14    12     3     1
   -0.72856172560695E-05        15    12     3     1
   -0.62396384717131E-04        16    12     3     1
   -0.44576353155174E-03        17    12     3     1
   -0.18056449216671E-18        18    12     3     1
   -0.76085512487561E-19        10    13     3     1
    0.42862984714286E-19        11    13     3     1
   -0.92524726861337E-17        12    13     3     1
    0.48132201262623E-03        13    13     3     1
   -0.53593738464979E-19        14    13     3     1
   -0.35957050530112E-19        15    13     3     1
    0.12124565309033E-17        16    13     3     1
    0.85807702097890E-17        17    13     3     1
   -0.45169917055681E-03        18    13     3     1
    0.17632521020101E-03        10    14     3     1
   -0.18689327346463E-03        11    14     3     1
    0.24841884242199E-05        12    14     3     1
   -0.48311839692913E-19        13    14     3     1
   -0.39704387280373E-03        14    14     3     1
    0.21418520915737E-03        15    14     3     1
   -0.26831775273634E-03        16    14     3     1
    0.37453339066395E-04        17    14     3     1
   -0.23760433292067E-18        18    14     3     1
   -0.11744172830647E-03        10    15     3     1
    0.76840298082040E-03        11    15     3     1
   -0.72856172560695E-05        12    15     3     1
   -0.32322220566524E-19        13    15     3     1
    0.21418520915737E-03        14    15     3     1
   -0.86008646138332E-03        15    15     3     1
   -0.14363231454033E-03        16    15     3     1
    0.19422128244710E-04        17    15     3     1
    0.12486400473325E-18        18    15     3     1
    0.36891682477014E-03        10    16     3     1
    0.93931752665939E-04        11    16     3     1
   -0.62396384717131E-04        12    16     3     1
    0.55551557240678E-19        13    16     3     1
   -0.26831775273634E-03        14    16     3     1
   -0.14363231454033E-03        15    16     3     1
    0.60804812682512E-03        16    16     3     1
   -0.80192532856286E-04        17    16     3     1
   -0.31582498443015E-19        18    16     3     1
   -0.52624139561608E-04        10    17     3     1
   -0.16652068255586E-04        11    17     3     1
   -0.44576353155174E-03        12    17     3     1
    0.22996549514769E-18        13    17     3     1
    0.37453339066395E-04        14    17     3     1
    0.19422128244710E-04        15    17     3     1
   -0.80192532856285E-04        16    17     3     1
    0.34508363052578E-04        17    17     3     1
    0.40921393722047E-18        18    17     3     1
    0.86437414184605E-19        10    18     3     1
    0.58466314907885E-18        11    18     3     1
    0.82117901212951E-17        12    18     3     1
   -0.45169917055681E-03        13    18     3     1
   -0.23172522783127E-18        14    18     3     1
    0.12458044019235E-18        15    18     3     1
   -0.73733954654730E-18        16    18     3     1
   -0.46286952613880E-17        17    18     3     1
    0.19742569323634E-04        18    18     3     1
   -0.46748442229362E-16         1     1     4     1
    0.72989500082906E-17         2     1     4     1
   -0.75997471410634E-19         3     1     4     1
   -0.10960143116328E-21         4     1     4     1
    0.91128346944081E-17         5     1     4     1
   -0.33590764126217E-17         6     1     4     1
   -0.56966027270164E-17         7     1     4     1
    0.80270913547691E-18         8     1     4     1
    0.18611563782443E-23         9     1     4     1
    0.72989721081287E-17         1     2     4     1
   -0.44051295958669E-16         2     2     4     1
   -0.72668964932522E-19         3     2     4     1
   -0.25675686213646E-20         4     2     4     1
    0.86638520856606E-17         5     2     4     1
   -0.14201064009025E-16         6     2     4     1
    0.21697323009936E-16         7     2     4     1
   -0.27635909008483E-17         8     2     4     1
    0.88012017175642E-21         9     2     4     1
   -0.73939938900818E-19         1     3     4     1
   -0.72657164056243E-19         2     3     4     1
   -0.45849097339595E-16         3     3     4     1
   -0.29137933385548E-18         4     3     4     1
   -0.87600854431533E-19         5     3     4     1
    0.85714712066244E-19         6     3     4     1
    0.40898049057048E-17         7     3     4     1
    0.30572683006337E-16         8     3     4     1
    0.90209008882583E-19         9     3     4     1
    0.32108134790081E-08         1     4     4     1
    0.14733500942246E-06         2     4     4     1
    0.16639598489631E-04         3     4     4     1
   -0.45779565635938E-16         4     4     4     1
    0.12477324958923E-07         5     4     4     1
   -0.42629939795076E-08         6     4     4     1
   -0.89417117601716E-06         7     4     4     1
   -0.64739664096934E-05         8     4     4     1
    0.30808710801214E-16         9     4     4     1
    0.91128368514601E-17         1     5     4     1
    0.86638572287170E-17         2     5     4     1
   -0.87237566188494E-19         3     5     4     1
   -0.21672132048889E-21         4     5     4     1
   -0.68326943589360E-17         5     5     4     1
    0.88266513208834E-17         6     5     4     1
   -0.38604491741990E-17         7     5     4     1
    0.56187014540681E-18         8     5     4     1
    0.32673634195845E-22         9     5     4     1
   -0.33590855901661E-17         1     6     4     1
   -0.14201066438543E-16         2     6     4     1
    0.85539966490936E-19         3     6     4     1
    0.93884999524769E-22         4     6     4     1
    0.88266504615914E-17         5     6     4     1
   -0.18438768867032E-16         6     6     4     1
    0.71227283704550E-17         7     6     4     1
   -0.99062132270080E-18         8     6     4     1
    0.10960143116328E-21         9     6     4     1
   -0.56969286055630E-17         1     7     4     1
    0.21697383278088E-16         2     7     4     1
    0.40891311146427E-17         3     7     4     1
    0.11964340379967E-19         4     7     4     1
   -0.38602667017688E-17         5     7     4     1
    0.71227876837365E-17         6     7     4     1
   -0.25600639524742E-16         7     7     4     1
   -0.10422819548869E-17         8     7     4     1
   -0.21069944562951E-19         9     7     4     1
    0.80037094684214E-18         1     8     4     1
   -0.27630961847925E-17         2     8     4     1
    0.30572421126656E-16         3     8     4     1
    0.88514942988074E-19         4     8     4     1
    0.56317154136066E-18         5     8     4     1
   -0.99020898395984E-18         6     8     4     1
   -0.10431255637192E-17         7     8     4     1
   -0.33071714463938E-16         8     8     4     1
   -0.15161889755852E-18         9     8     4     1
   -0.14338464621426E-08         1     9     4     1
   -0.62113059548079E-07         2     9     4     1
   -0.65580594847897E-05         3     9     4     1
    0.30811911951883E-16         4     9     4     1
   -0.26106633608057E-08         5     9     4     1
   -0.68278797788479E-08         6     9     4     1