 &FCI NORB=  12,NELEC=12,MS2=0,
  ORBSYM=3,2,1,1,4,1,5,3,2,1,6,7
  ISYM=1,
 &END
 0.5191412083444606    1    1    1    1
 0.4871948536249596    1    1    2    2
 0.50174866310521    1    1    3    3
 0.007587249917035779    1    1    4    3
 0.4582607383880707    1    1    4    4
 0.4582607383880707    1    1    5    5
 0.02409382405024563    1    1    6    3
 -0.004541695220604526    1    1    6    4
 0.2882990291581286    1    1    6    6
 0.195504211139838    1    1    7    7
 -0.01670227832116933    1    1    8    1
 0.1960609113526495    1    1    8    8
 -0.01628337704005686    1    1    9    2
 0.191182292085131    1    1    9    9
 0.03336396627177049    1    1   10    3
 -0.001353681582853521    1    1   10    4
 0.04697983811276762    1    1   10    6
 0.1546689841557469    1    1   10   10
 0.1805102421513407    1    1   11   11
 0.1845538709841859    1    1   12   12
 0.01597317735974958    2    1    2    1
 -0.007587249917036402    2    1    5    3
 0.004541695220610802    2    1    6    5
 -0.0002094506405570583    2    1    8    2
 -0.0002094506405571014    2    1    9    1
 0.002439309633780472    2    1    9    8
 0.001353681582854743    2    1   10    5
 0.002021814416344806    2    1   12   11
 0.4871948536249598    2    2    1    1
 0.5191412083444573    2    2    2    2
 0.5017486631052092    2    2    3    3
 -0.007587249917036982    2    2    4    3
 0.4582607383880677    2    2    4    4
 0.4582607383880694    2    2    5    5
 0.02409382405024496    2    2    6    3
 0.004541695220617167    2    2    6    4
 0.2882990291581281    2    2    6    6
 0.1955042111398376    2    2    7    7
 -0.01628337704005517    2    2    8    1
 0.1911822920850888    2    2    8    8
 -0.01670227832117109    2    2    9    2
 0.1960609113526924    2    2    9    9
 0.03336396627177032    2    2   10    3
 0.001353681582856107    2    2   10    4
 0.04697983811276765    2    2   10    6
 0.1546689841557468    2    2   10   10
 0.1845538709840266    2    2   11   11
 0.1805102421514906    2    2   12   12
 0.01098016921749182    3    1    3    1
 -0.003031775750568216    3    1    4    1
 0.003031775750568078    3    1    5    2
 0.001456090657136952    3    1    6    1
 -0.000365650701041454    3    1    8    3
 0.001623813904158654    3    1    8    4
 -0.0034262661943218    3    1    8    6
 -0.001623813904158945    3    1    9    5
 0.001218423998618016    3    1   10    1
 -0.000446298517661723    3    1   10    8
 0.002393585434485038    3    1   12    7
 0.0109801692174916    3    2    3    2
 0.003031775750567695    3    2    4    2
 0.003031775750567812    3    2    5    1
 0.001456090657136922    3    2    6    2
 -0.001623813904158597    3    2    8    5
 -0.0003656507010411998    3    2    9    3
 -0.001623813904158926    3    2    9    4
 -0.003426266194322879    3    2    9    6
 0.001218423998617936    3    2   10    2
 -0.0004462985176618898    3    2   10    9
 0.002393585434483557    3    2   11    7
 0.50174866310521    3    3    1    1
 0.5017486631052093    3    3    2    2
 0.535280516399297    3    3    3    3
 0.45923218498216    3    3    4    4
 0.4592321849821613    3    3    5    5
 0.03166438822188153    3    3    6    3
 0.2853620898004491    3    3    6    6
 0.1998981711176943    3    3    7    7
 -0.01958549660220587    3    3    8    1
 0.1918299605031445    3    3    8    8
 -0.01958549660220806    3    3    9    2
 0.191829960503187    3    3    9    9
 0.0383731550910581    3    3   10    3
 0.04381577630250486    3    3   10    6
 0.1556069800828933    3    3   10   10
 0.1838591123979259    3    3   11   11
 0.1838591123980817    3    3   12   12
 -0.003031775750568218    4    1    3    1
 0.01546673695520075    4    1    4    1
 -0.00753295406873695    4    1    5    2
 -0.006587278099731588    4    1    6    1
 0.002123061315184927    4    1    8    3
 0.001400199066292287    4    1    8    4
 -0.004395730524712614    4    1    8    6
 -0.0009676922014045839    4    1    9    5
 -0.003519203393289244    4    1   10    1
 -0.001568059781789961    4    1   10    8
 0.000785904888833815    4    1   12    7
 0.003031775750567695    4    2    3    2
 0.01546673695519914    4    2    4    2
 0.007532954068736177    4    2    5    1
 0.006587278099731525    4    2    6    2
 0.0009676922014039473    4    2    8    5
 -0.002123061315185198    4    2    9    3
 0.001400199066291939    4    2    9    4
 0.004395730524712961    4    2    9    6
 0.003519203393288859    4    2   10    2
 0.001568059781790143    4    2   10    9
 -0.0007859048888332688    4    2   11    7
 0.007587249917035781    4    3    1    1
 -0.007587249917036983    4    3    2    2
 0.01531557896769662    4    3    4    3
 -0.00261244097010732    4    3    6    4
 0.000252187038249591    4    3    8    1
 0.002742728126125929    4    3    8    8
 -0.0002521870382498195    4    3    9    2
 -0.002742728126127303    4    3    9    9
 0.0002227963064087386    4    3   10    4
 -0.001724331684844003    4    3   11   11
 0.001724331684847829    4    3   12   12
 0.4582607383880707    4    4    1    1
 0.4582607383880679    4    4    2    2
 0.45923218498216    4    4    3    3
 0.4542952157579345    4    4    4    4
 0.4417998681273324    4    4    5    5
 0.01771257874784183    4    4    6    3
 0.2806074910137749    4    4    6    6
 0.1918603165532323    4    4    7    7
 -0.01340038578697743    4    4    8    1
 0.1928946181081053    4    4    8    8
 -0.0134003857869789    4    4    9    2
 0.1928946181081463    4    4    9    9
 0.02786565858992879    4    4   10    3
 0.04435245069326488    4    4   10    6
 0.1516905280038275    4    4   10   10
 0.1791752370415044    4    4   11   11
 0.1791752370416515    4    4   12   12
 0.003031775750567811    5    1    3    2
 0.007532954068736177    5    1    4    2
 0.01546673695519991    5    1    5    1
 0.00658727809973175    5    1    6    2
 0.001400199066291866    5    1    8    5
 -0.002123061315185298    5    1    9    3
 0.0009676922014042272    5    1    9    4
 0.004395730524713269    5    1    9    6
 0.003519203393289065    5    1   10    2
 0.001568059781790237    5    1   10    9
 -0.0007859048888333171    5    1   11    7
 0.003031775750568076    5    2    3    1
 -0.007532954068736952    5    2    4    1
 0.01546673695519985    5    2    5    2
 0.006587278099731256    5    2    6    1
 -0.002123061315184796    5    2    8    3
 -0.0009676922014043196    5    2    8    4
 0.004395730524712204    5    2    8    6
 0.00140019906629225    5    2    9    5
 0.003519203393288977    5    2   10    1
 0.001568059781789855    5    2   10    8
 -0.0007859048888337096    5    2   12    7
 -0.007587249917036402    5    3    2    1
 0.01531557896769673    5    3    5    3
 -0.00261244097010728    5    3    6    5
 -0.0002521870382496785    5    3    8    2
 -0.0002521870382497301    5    3    9    1
 -0.002742728126126669    5    3    9    8
 0.0002227963064087351    5    3   10    5
 -0.001724331684845642    5    3   12   11
 0.006247673815301537    5    4    5    4
 0.4582607383880709    5    5    1    1
 0.4582607383880696    5    5    2    2
 0.4592321849821612    5    5    3    3
 0.4417998681273326    5    5    4    4
 0.4542952157579367    5    5    5    5
 0.01771257874784201    5    5    6    3
 0.2806074910137751    5    5    6    6
 0.1918603165532337    5    5    7    7
 -0.01340038578697761    5    5    8    1
 0.1928946181081047    5    5    8    8
 -0.0134003857869789    5    5    9    2
 0.1928946181081468    5    5    9    9
 0.02786565858992894    5    5   10    3
 0.04435245069326499    5    5   10    6
 0.1516905280038275    5    5   10   10
 0.179175237041505    5    5   11   11
 0.1791752370416522    5    5   12   12
 0.001456090657136951    6    1    3    1
 -0.006587278099731587    6    1    4    1
 0.006587278099731257    6    1    5    2
 0.01046837975176365    6    1    6    1
 -0.002961549944505632    6    1    8    3
 -0.003006393059657726    6    1    8    4
 0.00772949239147664    6    1    8    6
 0.003006393059658165    6    1    9    5
 0.00485862154996268    6    1   10    1
 0.002694518271539029    6    1   10    8
 -0.001575599616633248    6    1   12    7
 0.001456090657136923    6    2    3    2
 0.00658727809973152    6    2    4    2
 0.00658727809973175    6    2    5    1
 0.01046837975176441    6    2    6    2
 0.003006393059657482    6    2    8    5
 -0.002961549944506557    6    2    9    3
 0.003006393059658019    6    2    9    4
 0.007729492391479008    6    2    9    6
 0.004858621549962915    6    2   10    2
 0.00269451827153984    6    2   10    9
 -0.001575599616632027    6    2   11    7
 0.0240938240502456    6    3    1    1
 0.02409382405024494    6    3    2    2
 0.03166438822188149    6    3    3    3
 0.01771257874784181    6    3    4    4
 0.01771257874784199    6    3    5    5
 0.00927539144570114    6    3    6    3
 0.003362970056352312    6    3    6    6
 0.007443166088116287    6    3    7    7
 -0.004056556355825271    6    3    8    1
 -0.001477445843323079    6    3    8    8
 -0.004056556355826063    6    3    9    2
 -0.001477445843323504    6    3    9    9
 0.004831670247016904    6    3   10    3
 -0.001462408183759671    6    3   10    6
 0.003480143856226474    6    3   10   10
 0.003522030716147358    6    3   11   11
 0.003522030716151826    6    3   12   12
 -0.004541695220604529    6    4    1    1
 0.004541695220617164    6    4    2    2
 -0.002612440970107321    6    4    4    3
 0.009193929786944798    6    4    6    4
 -0.001192927575414974    6    4    8    1
 -0.005324151513651809    6    4    8    8
 0.001192927575414376    6    4    9    2
 0.00532415151365512    6    4    9    9
 0.003218211887300499    6    4   10    4
 0.002773754884657835    6    4   11   11
 -0.002773754884660599    6    4   12   12
 0.004541695220610802    6    5    2    1
 -0.00261244097010728    6    5    5    3
 0.009193929786944683    6    5    6    5
 0.001192927575414547    6    5    8    2
 0.001192927575414773    6    5    9    1
 0.005324151513653404    6    5    9    8
 0.003218211887300501    6    5   10    5
 0.002773754884659146    6    5   12   11
 0.2882990291581286    6    6    1    1
 0.2882990291581281    6    6    2    2
 0.2853620898004492    6    6    3    3
 0.2806074910137747    6    6    4    4
 0.280607491013775    6    6    5    5
 0.003362970056352324    6    6    6    3
 0.2318170659784269    6    6    6    6
 0.1785554468734257    6    6    7    7
 -0.003070149199645379    6    6    8    1
 0.1771574103766458    6    6    8    8
 -0.003070149199644947    6    6    9    2
 0.1771574103766807    6    6    9    9
 0.008247712368424524    6    6   10    3
 0.0254418462983926    6    6   10    6
 0.1423335181635988    6    6   10   10
 0.1601870031823333    6    6   11   11
 0.1601870031824279    6    6   12   12
 0.001382642215876008    7    1    7    1
 -0.001719118482652106    7    1    8    7
 0.0006538642215536335    7    1   11    5
 0.0002899413385809072    7    1   12    3
 -0.0006538642215545361    7    1   12    4
 0.001774867125279344    7    1   12    6
 -0.0008402588407096127    7    1   12   10
 0.001382642215875955    7    2    7    2
 -0.001719118482652419    7    2    9    7
 0.0002899413385808163    7    2   11    3
 0.0006538642215534471    7    2   11    4
 0.001774867125277981    7    2   11    6
 -0.0008402588407103056    7    2   11   10
 0.0006538642215543315    7    2   12    5
 0.00420040943244549    7    3    7    3
 0.008354686525935229    7    3    7    6
 -0.005848511874978392    7    3   10    7
 0.004277070695119186    7    3   11    2
 -0.004411551331752982    7    3   11    9
 0.004277070695124285    7    3   12    1
 -0.004411551331753668    7    3   12    8
 0.001577357751798889    7    4    7    4
 0.0002919157657048393    7    4   11    2
 -0.001437347339759867    7    4   11    9
 -0.0002919157657084731    7    4   12    1
 0.001437347339764526    7    4   12    8
 0.001577357751798847    7    5    7    5
 0.0002919157657064289    7    5   11    1
 -0.001437347339761246    7    5   11    8
 0.0002919157657067905    7    5   12    2
 -0.00143734733976286    7    5   12    9
 0.008354686525935219    7    6    7    3
 0.03799417112330975    7    6    7    6
 -0.02592978100447124    7    6   10    7
 0.01405570354935433    7    6   11    2
 -0.02668856036456618    7    6   11    9
 0.01405570354937153    7    6   12    1
 -0.02668856036457494    7    6   12    8
 0.1955042111398379    7    7    1    1
 0.195504211139837    7    7    2    2
 0.1998981711176936    7    7    3    3
 0.1918603165532324    7    7    4    4
 0.1918603165532322    7    7    5    5
 0.007443166088116222    7    7    6    3
 0.1785554468734256    7    7    6    6
 0.171618329135537    7    7    7    7
 -0.004700211721452793    7    7    8    1
 0.1468959835318761    7    7    8    8
 -0.004700211721453407    7    7    9    2
 0.1468959835318989    7    7    9    9
 0.002923859182119115    7    7   10    3
 0.002643344175189129    7    7   10    6
 0.1435975863459417    7    7   10   10
 0.1456940280246106    7    7   11   11
 0.1456940280246549    7    7   12   12
 -0.01670227832116929    8    1    1    1
 -0.01628337704005519    8    1    2    2
 -0.01958549660220589    8    1    3    3
 0.0002521870382495916    8    1    4    3
 -0.01340038578697744    8    1    4    4
 -0.0134003857869776    8    1    5    5
 -0.004056556355825268    8    1    6    3
 -0.001192927575414974    8    1    6    4
 -0.003070149199645368    8    1    6    6
 -0.004700211721452613    8    1    7    7
 0.00352574303514641    8    1    8    1
 0.0008966939433375784    8    1    8    8
 0.002407203236124518    8    1    9    2
 -0.0008283412509541754    8    1    9    9
 -0.002595261317735852    8    1   10    3
 -0.0005949467792818039    8    1   10    4
 0.0006147944226601053    8    1   10    6
 -0.001992265238232957    8    1   10   10
 -0.003133248896306123    8    1   11   11
 -0.002997682534602527    8    1   12   12
 -0.0002094506405570586    8    2    2    1
 -0.0002521870382496798    8    2    5    3
 0.001192927575414547    8    2    6    5
 0.0005592698995111791    8    2    8    2
 0.0005592698995112931    8    2    9    1
 0.0008625175971456834    8    2    9    8
 0.0005949467792816844    8    2   10    5
 6.778318085425088e-05    8    2   12   11
 -0.0003656507010414538    8    3    3    1
 0.002123061315184931    8    3    4    1
 -0.002123061315184797    8    3    5    2
 -0.002961549944505629    8    3    6    1
 0.001955105849024098    8    3    8    3
 0.002252339186826338    8    3    8    4
 -0.00559757721868648    8    3    8    6
 -0.002252339186826727    8    3    9    5
 -0.00159161123428103    8    3   10    1
 -0.001227736546615723    8    3   10    8
 0.002516954385381345    8    3   12    7
 0.001623813904158653    8    4    3    1
 0.001400199066292287    8    4    4    1
 -0.0009676922014043198    8    4    5    2
 -0.003006393059657725    8    4    6    1
 0.002252339186826335    8    4    8    3
 0.004582375754461466    8    4    8    4
 -0.009234645472516772    8    4    8    6
 -0.002613407295317042    8    4    9    5
 -0.001925634992447114    8    4   10    1
 -0.00109543147304999    8    4   10    8
 0.005753438866765043    8    4   12    7
 -0.001623813904158597    8    5    3    2
 0.0009676922014039468    8    5    4    2
 0.001400199066291865    8    5    5    1
 0.003006393059657484    8    5    6    2
 0.004582375754460611    8    5    8    5
 -0.002252339186826856    8    5    9    3
 0.002613407295316309    8    5    9    4
 0.009234645472517915    8    5    9    6
 0.001925634992446908    8    5   10    2
 0.001095431473050357    8    5   10    9
 -0.00575343886676075    8    5   11    7
 -0.0034262661943218    8    6    3    1
 -0.004395730524712618    8    6    4    1
 0.004395730524712206    8    6    5    2
 0.007729492391476639    8    6    6    1
 -0.005597577218686471    8    6    8    3
 -0.009234645472516781    8    6    8    4
 0.02757968971554833    8    6    8    6
 0.009234645472517912    8    6    9    5
 0.005121227987090544    8    6   10    1
 0.002015310849838576    8    6   10    8
 -0.01889585102487413    8    6   12    7
 -0.001719118482652094    8    7    7    1
 0.01051651876581409    8    7    8    7
 -0.002537004796359211    8    7   11    5
 -0.0002065696482012862    8    7   12    3
 0.002537004796362639    8    7   12    4
 -0.009392886034075504    8    7   12    6
 0.006859281508152176    8    7   12   10
 0.1960609113526496    8    8    1    1
 0.1911822920850887    8    8    2    2
 0.1918299605031448    8    8    3    3
 0.002742728126125921    8    8    4    3
 0.1928946181081052    8    8    4    4
 0.1928946181081047    8    8    5    5
 -0.001477445843323045    8    8    6    3
 -0.005324151513651807    8    8    6    4
 0.1771574103766456    8    8    6    6
 0.1468959835318757    8    8    7    7
 0.0008966939433375656    8    8    8    1
 0.1640429251601689    8    8    8    8
 -0.0008283412509530762    8    8    9    2
 0.14658597388029    8    8    9    9
 0.002607637039536423    8    8   10    3
 -0.001407664741299282    8    8   10    4
 0.01410432635829546    8    8   10    6
 0.1242895594316017    8    8   10   10
 0.1341045154626696    8    8   11   11
 0.1456506657674044    8    8   12   12
 -0.0002094506405571023    9    1    2    1
 -0.0002521870382497311    9    1    5    3
 0.001192927575414772    9    1    6    5
 0.0005592698995112931    9    1    8    2
 0.0005592698995114084    9    1    9    1
 0.0008625175971458837    9    1    9    8
 0.0005949467792817965    9    1   10    5
 6.778318085426368e-05    9    1   12   11
 -0.01628337704005689    9    2    1    1
 -0.0167022783211711    9    2    2    2
 -0.01958549660220807    9    2    3    3
 -0.0002521870382498198    9    2    4    3
 -0.01340038578697891    9    2    4    4
 -0.01340038578697891    9    2    5    5
 -0.004056556355826066    9    2    6    3
 0.001192927575414376    9    2    6    4
 -0.003070149199644944    9    2    6    6
 -0.004700211721453208    9    2    7    7
 0.002407203236124518    9    2    8    1
 -0.0008283412509530789    9    2    8    8
 0.003525743035147812    9    2    9    2
 0.0008966939433382732    9    2    9    9
 -0.00259526131773622    9    2   10    3
 0.0005949467792816484    9    2   10    4
 0.0006147944226605434    9    2   10    6
 -0.001992265238233241    9    2   10   10
 -0.002997682534598028    9    2   11   11
 -0.003133248896311377    9    2   12   12
 -0.0003656507010412    9    3    3    2
 -0.002123061315185196    9    3    4    2
 -0.002123061315185297    9    3    5    1
 -0.002961549944506559    9    3    6    2
 -0.002252339186826857    9    3    8    5
 0.001955105849025327    9    3    9    3
 -0.002252339186827314    9    3    9    4
 -0.005597577218689853    9    3    9    6
 -0.001591611234281491    9    3   10    2
 -0.001227736546616524    9    3   10    9
 0.002516954385380285    9    3   11    7
 -0.001623813904158925    9    4    3    2
 0.001400199066291942    9    4    4    2
 0.0009676922014042273    9    4    5    1
 0.003006393059658019    9    4    6    2
 0.002613407295316309    9    4    8    5
 -0.002252339186827316    9    4    9    3
 0.004582375754462422    9    4    9    4
 0.009234645472519383    9    4    9    6
 0.001925634992447231    9    4   10    2
 0.001095431473050653    9    4   10    9
 -0.005753438866761293    9    4   11    7
 -0.001623813904158945    9    5    3    1
 -0.0009676922014045842    9    5    4    1
 0.001400199066292249    9    5    5    2
 0.003006393059658164    9    5    6    1
 -0.002252339186826726    9    5    8    3
 -0.002613407295317042    9    5    8    4
 0.009234645472517905    9    5    8    6
 0.00458237575446303    9    5    9    5
 0.001925634992447386    9    5   10    1
 0.001095431473050251    9    5   10    8
 -0.0057534388667656    9    5   12    7
 -0.003426266194322878    9    6    3    2
 0.004395730524712959    9    6    4    2
 0.004395730524713268    9    6    5    1
 0.007729492391479004    9    6    6    2
 0.009234645472517919    9    6    8    5
 -0.005597577218689853    9    6    9    3
 0.009234645472519381    9    6    9    4
 0.02757968971556304    9    6    9    6
 0.005121227987091968    9    6   10    2
 0.002015310849840205    9    6   10    9
 -0.01889585102487006    9    6   11    7
 -0.001719118482652399    9    7    7    2
 0.01051651876581885    9    7    9    7
 -0.0002065696482021594    9    7   11    3
 -0.002537004796359277    9    7   11    4
 -0.009392886034071086    9    7   11    6
 0.006859281508160372    9    7   11   10
 -0.002537004796362661    9    7   12    5
 0.002439309633780473    9    8    2    1
 -0.002742728126126676    9    8    5    3
 0.005324151513653405    9    8    6    5
 0.000862517597145683    9    8    8    2
 0.0008625175971458853    9    8    9    1
 0.008728475639950084    9    8    9    8
 0.001407664741300028    9    8   10    5
 0.005773075152339204    9    8   12   11
 0.1911822920851309    9    9    1    1
 0.1960609113526923    9    9    2    2
 0.191829960503187    9    9    3    3
 -0.002742728126127308    9    9    4    3
 0.1928946181081465    9    9    4    4
 0.1928946181081468    9    9    5    5
 -0.001477445843323472    9    9    6    3
 0.005324151513655113    9    9    6    4
 0.1771574103766808    9    9    6    6
 0.1468959835318973    9    9    7    7
 -0.0008283412509541758    9    9    8    1
 0.1465859738802902    9    9    8    8
 0.0008966939433382515    9    9    9    2
 0.1640429251602104    9    9    9    9
 0.002607637039537553    9    9   10    3
 0.001407664741300881    9    9   10    4
 0.0141043263583006    9    9   10    6
 0.124289559431616    9    9   10   10
 0.1456506657673606    9    9   11   11
 0.1341045154627383    9    9   12   12
 0.001218423998618019   10    1    3    1
 -0.003519203393289246   10    1    4    1
 0.003519203393288984   10    1    5    2
 0.004858621549962677   10    1    6    1
 -0.001591611234281029   10    1    8    3
 -0.001925634992447112   10    1    8    4
 0.005121227987090544   10    1    8    6
 0.001925634992447385   10    1    9    5
 0.002643049907169172   10    1   10    1
 0.001025789642986383   10    1   10    8
 -0.002361080743668999   10    1   12    7
 0.001218423998617937   10    2    3    2
 0.003519203393288849   10    2    4    2
 0.003519203393289064   10    2    5    1
 0.004858621549962918   10    2    6    2
 0.001925634992446905   10    2    8    5
 -0.00159161123428149   10    2    9    3
 0.001925634992447231   10    2    9    4
 0.005121227987091975   10    2    9    6
 0.002643049907169219   10    2   10    2
 0.001025789642986637   10    2   10    9
 -0.002361080743667919   10    2   11    7
 0.03336396627177039   10    3    1    1
 0.03336396627177024   10    3    2    2
 0.0383731550910581   10    3    3    3
 0.02786565858992873   10    3    4    4
 0.027865658589929   10    3    5    5
 0.004831670247016894   10    3    6    3
 0.008247712368424564   10    3    6    6
 0.002923859182119356   10    3    7    7
 -0.002595261317735854   10    3    8    1
 0.002607637039536318   10    3    8    8
 -0.002595261317736228   10    3    9    2
 0.002607637039537396   10    3    9    9
 0.004988493149395834   10    3   10    3
 0.003023234239583833   10    3   10    6
 0.001314109082924409   10    3   10   10
 0.003870108506361414   10    3   11   11
 0.003870108506371868   10    3   12   12
 -0.001353681582853524   10    4    1    1
 0.001353681582856103   10    4    2    2
 0.000222796306408741   10    4    4    3
 0.003218211887300495   10    4    6    4
 -0.0005949467792818041   10    4    8    1
 -0.001407664741299286   10    4    8    8
 0.0005949467792816484   10    4    9    2
 0.001407664741300883   10    4    9    9
 0.001381248567073217   10    4   10    4
 0.0003205648051200661   10    4   11   11
 -0.0003205648051198787   10    4   12   12
 0.001353681582854743   10    5    2    1
 0.0002227963064087412   10    5    5    3
 0.003218211887300499   10    5    6    5
 0.0005949467792816848   10    5    8    2
 0.0005949467792817989   10    5    9    1
 0.001407664741300028   10    5    9    8
 0.001381248567073273   10    5   10    5
 0.0003205648051201299   10    5   12   11
 0.04697983811276764   10    6    1    1
 0.04697983811276754   10    6    2    2
 0.0438157763025049   10    6    3    3
 0.04435245069326491   10    6    4    4
 0.04435245069326507   10    6    5    5
 -0.001462408183759675   10    6    6    3
 0.02544184629839255   10    6    6    6
 0.002643344175188467   10    6    7    7
 0.0006147944226601093   10    6    8    1
 0.01410432635829552   10    6    8    8
 0.0006147944226605521   10    6    9    2
 0.0141043263583007   10    6    9    9
 0.003023234239583868   10    6   10    3
 0.01131650671627535   10    6   10    6
 -0.0008392874856569195   10    6   10   10
 0.006468388524794842   10    6   11   11
 0.006468388524819346   10    6   12   12
 -0.005848511874978924   10    7    7    3
 -0.02592978100447029   10    7    7    6
 0.03457918577983359   10    7   10    7
 -0.005357852006521403   10    7   11    2
 0.02137526808625052   10    7   11    9
 -0.00535785200652657   10    7   12    1
 0.02137526808624941   10    7   12    8
 -0.0004462985176617201   10    8    3    1
 -0.001568059781789974   10    8    4    1
 0.001568059781789858   10    8    5    2
 0.002694518271539027   10    8    6    1
 -0.001227736546615726   10    8    8    3
 -0.001095431473049982   10    8    8    4
 0.002015310849838606   10    8    8    6
 0.001095431473050256   10    8    9    5
 0.00102578964298639   10    8   10    1
 0.004064932759934644   10    8   10    8
 0.003667154355228915   10    8   12    7
 -0.0004462985176618867   10    9    3    2
 0.001568059781790136   10    9    4    2
 0.001568059781790238   10    9    5    1
 0.002694518271539839   10    9    6    2
 0.001095431473050347   10    9    8    5
 -0.001227736546616521   10    9    9    3
 0.001095431473050649   10    9    9    4
 0.002015310849840259   10    9    9    6
 0.001025789642986641   10    9   10    2
 0.004064932759935263   10    9   10    9
 0.003667154355232369   10    9   11    7
 0.1546689841557475   10   10    1    1
 0.1546689841557468   10   10    2    2
 0.1556069800828927   10   10    3    3
 0.1516905280038281   10   10    4    4
 0.1516905280038272   10   10    5    5
 0.003480143856226507   10   10    6    3
 0.142333518163599   10   10    6    6
 0.1435975863459405   10   10    7    7
 -0.001992265238232948   10   10    8    1
 0.1242895594316022   10   10    8    8
 -0.001992265238233168   10   10    9    2
 0.1242895594316167   10   10    9    9
 0.00131410908292432   10   10   10    3
 -0.0008392874856568553   10   10   10    6
 0.1383208115864507   10   10   10   10
 0.1266293740737335   10   10   11   11
 0.1266293740737459   10   10   12   12
 0.0002919157657064255   11    1    7    5
 0.0009710864659435457   11    1   11    1
 -0.0003987537954300201   11    1   11    8
 0.0009710864659448873   11    1   12    2
 -0.0003987537954304971   11    1   12    9
 0.004277070695119185   11    2    7    3
 0.000291915765704839   11    2    7    4
 0.01405570354935434   11    2    7    6
 -0.005357852006521499   11    2   10    7
 0.0154698844659925   11    2   11    2
 -0.00944837737542553   11    2   11    9
 0.01352771153412384   11    2   12    1
 -0.008650869784570168   11    2   12    8
 0.0002899413385808188   11    3    7    2
 -0.0002065696482021409   11    3    9    7
 0.001136570470715121   11    3   11    3
 2.923066798616427e-05   11    3   11    4
 0.0003159679258234638   11    3   11    6
 -0.0001784481617533651   11    3   11   10
 2.923066798617581e-05   11    3   12    5
 0.0006538642215534458   11    4    7    2
 -0.002537004796359265   11    4    9    7
 2.923066798616332e-05   11    4   11    3
 0.002025188369041561   11    4   11    4
 0.002348871532358697   11    4   11    6
 -0.001007549308627524   11    4   11   10
 0.0009350804304718145   11    4   12    5
 0.0006538642215536353   11    5    7    1
 -0.002537004796359195   11    5    8    7
 0.00202518836904173   11    5   11    5
 2.92306679859826e-05   11    5   12    3
 -0.0009350804304720027   11    5   12    4
 0.002348871532361141   11    5   12    6
 -0.001007549308626758   11    5   12   10
 0.001774867125277981   11    6    7    2
 -0.009392886034071077   11    6    9    7
 0.0003159679258234586   11    6   11    3
 0.002348871532358696   11    6   11    4
 0.00869766656404093   11    6   11    6
 -0.005247104255982587   11    6   11   10
 0.002348871532361777   11    6   12    5
 0.002393585434483545   11    7    3    2
 -0.0007859048888332611   11    7    4    2
 -0.0007859048888333041   11    7    5    1
 -0.001575599616632043   11    7    6    2
 -0.00575343886676075   11    7    8    5
 0.002516954385380261   11    7    9    3
 -0.005753438866761214   11    7    9    4
 -0.01889585102487004   11    7    9    6
 -0.002361080743667932   11    7   10    2
 0.003667154355232364   11    7   10    9
 0.01973712420916301   11    7   11    7
 -0.001437347339761243   11    8    7    5
 -0.0003987537954300185   11    8   11    1
 0.003529206619189555   11    8   11    8
 -0.0003987537954304306   11    8   12    2
 0.003529206619191267   11    8   12    9
 -0.004411551331753188   11    9    7    3
 -0.001437347339759849   11    9    7    4
 -0.02668856036456633   11    9    7    6
 0.02137526808625111   11    9   10    7
 -0.009448377375425549   11    9   11    2
 0.02755087831475931   11    9   11    9
 -0.008650869784575809   11    9   12    1
 0.02049246507638591   11    9   12    8
 -0.0008402588407103271   11   10    7    2
 0.006859281508160356   11   10    9    7
 -0.000178448161753374   11   10   11    3
 -0.001007549308627543   11   10   11    4
 -0.005247104255982605   11   10   11    6
 0.009110359626434366   11   10   11   10