&FCI NORB=14, NELEC=14, MS2=0
 ORBSYM=1,1,1,1,1,1,1,1,1,1,1,1,1,1,
 ISYM=1
&END
0 0 0 0 0
4 1 1 1 1
4 2 2 2 2
4 3 3 3 3
4 4 4 4 4
4 5 5 5 5
4 6 6 6 6
4 7 7 7 7
4 8 8 8 8
4 9 9 9 9
4 10 10 10 10
4 11 11 11 11
4 12 12 12 12
4 13 13 13 13
4 14 14 14 14
-1 2 1 0 0
-1 3 2 0 0 
-1 4 3 0 0
-1 5 4 0 0 
-1 6 5 0 0 
-1 7 6 0 0 
-1 8 7 0 0 
-1 9 8 0 0
-1 10 9 0 0
-1 11 10 0 0
-1 12 11 0 0
-1 13 12 0 0
-1 14 13 0 0
-1 14 1 0 0
-1 1 14 0 0