 &FCI NORB=   2,NELEC= 2,MS2=0,
  ORBSYM=1,1
  ISYM=1,
 &END
 0.6264024995295183    1    1    1    1
 0.1967905834854703    2    1    2    1
 0.6217067631197137    2    2    1    1
 0.6530707469425742    2    2    2    2
 -1.110844179883728    1    1  0  0
 -0.589121003706083    2    2  0  0
 0.52917721092  0  0  0  0
