 &FCI NORB= 8,NELEC= 4,ORBSYM= 1, 1, 1, 1, 1, 1, 1, 1, 
 ISYM= 0 ,
 TREL=.TRUE.
 &END
(0.849697710839727,-8.27734357072132e-17)   1   1   1   1
(0.00169752174664846,-1.8634539597013e-06)   5   1   1   1
(-0.00117031388538684,-3.77465377881737e-07)   7   1   1   1
(-0.000491212368033579,-0.000227466729602382)   3   1   3   1
(1.07849558352656e-07,-4.90837545570564e-07)   5   1   3   1
(3.2855729401925e-08,-4.06936442989234e-08)   7   1   3   1
(0.00169752174664846,-1.8634539597013e-06)   1   1   5   1
(1.07849558352656e-07,-4.90837545570564e-07)   3   1   5   1
(1.20976282227731e-05,-2.71676668720894e-07)   5   1   5   1
(-1.19330333191706e-05,1.13482918811891e-07)   7   1   5   1
(-0.00117031388538684,-3.77465377881737e-07)   1   1   7   1
(3.2855729401925e-08,-4.06936442989234e-08)   3   1   7   1
(-1.19330333191706e-05,1.13482918811891e-07)   5   1   7   1
(1.97725917589457e-05,-2.12861184664653e-08)   7   1   7   1
(0.849211347604782,-4.98274868989331e-18)   3   3   1   1
(0.0219790156144599,-2.11419423634673e-18)   1   3   3   1
(7.77209803495013e-05,-8.51957427884968e-08)   5   3   3   1
(-7.92089045618623e-05,-2.55142379097605e-08)   7   3   3   1
(1.77962522799435e-07,4.05183107437966e-07)   1   3   5   1
(0.00169593628002358,-1.86171351424853e-06)   3   3   5   1
(2.74617034925152e-05,6.24895849896125e-05)   5   3   5   1
(-2.07040028217253e-05,-4.72708895570904e-05)   7   3   5   1
(-2.26298803397555e-07,-5.18846280633537e-07)   1   3   7   1
(-0.00116899170868648,-3.77038931767514e-07)   3   3   7   1
(-2.06949143042747e-05,-4.72501388722521e-05)   5   3   7   1
(3.19524172253158e-05,7.32822984602799e-05)   7   3   7   1
(0.00169752174664846,1.86345395970124e-06)   1   5   1   1
(0.383481964144833,-1.93437784927349e-17)   5   5   1   1
(-0.116649007469727,-0.000166537014148811)   7   5   1   1
(1.77962522799487e-07,-4.05183107438412e-07)   1   5   3   1
(6.59678541284868e-10,1.67307775584477e-08)   3   5   3   1
(1.21322578776014e-05,-2.27640104574593e-21)   1   5   5   1
(1.66290417763921e-05,-7.5533986735656e-05)   3   5   5   1
(-0.000190461229677598,2.09078766510872e-07)   5   5   5   1
(-9.96389800259136e-05,-3.28720241850908e-08)   7   5   5   1
(-1.18836219948672e-05,3.31570215762186e-09)   1   5   7   1
(2.94324315528846e-06,-3.26168546110162e-06)   3   5   7   1
(0.000505567337920699,1.63062399642021e-07)   5   5   7   1
(-0.000407273335489833,-7.12794396605004e-07)   7   5   7   1
(-0.00117031388538684,3.7746537788332e-07)   1   7   1   1
(-0.116649007469728,0.000166537014148808)   5   7   1   1
(0.471024433526982,-5.53887980832549e-17)   7   7   1   1
(-2.26298803397322e-07,5.18846280633279e-07)   1   7   3   1
(-1.5531435804063e-07,-6.74020666185271e-08)   3   7   3   1
(-1.18836219948672e-05,-3.31570215762285e-09)   1   7   5   1
(-1.25149762388662e-05,5.71951063986319e-05)   3   7   5   1
(-9.9638677399437e-05,2.51615304292377e-07)   5   7   5   1
(-0.00035845713364972,3.93496227257591e-07)   7   7   5   1
(2.05456511906184e-05,1.11404684898642e-20)   1   7   7   1
(-4.62466993727968e-06,5.45083010763424e-06)   3   7   7   1
(-0.000407274715876241,4.50295961653309e-07)   5   7   7   1
(0.00171028820713861,5.51625220708493e-07)   7   7   7   1
(0.0219790156144599,-2.11419423634673e-18)   3   1   1   3
(1.77962522799435e-07,4.05183107437966e-07)   5   1   1   3
(-2.26298803397555e-07,-5.18846280633537e-07)   7   1   1   3
(0.849211347604782,-4.98274868989331e-18)   1   1   3   3
(0.00169593628002358,-1.86171351424853e-06)   5   1   3   3
(-0.00116899170868648,-3.77038931767514e-07)   7   1   3   3
(7.77209803495013e-05,-8.51957427884968e-08)   3   1   5   3
(2.74617034925152e-05,6.24895849896125e-05)   5   1   5   3
(-2.06949143042747e-05,-4.72501388722521e-05)   7   1   5   3
(-7.92089045618623e-05,-2.55142379097605e-08)   3   1   7   3
(-2.07040028217253e-05,-4.72708895570904e-05)   5   1   7   3
(3.19524172253158e-05,7.32822984602799e-05)   7   1   7   3
(-0.00049121236803357,0.000227466729602379)   1   3   1   3
(6.59678541318749e-10,-1.67307775584182e-08)   5   3   1   3
(-1.55314358040576e-07,6.74020666185542e-08)   7   3   1   3
(0.848725743073294,7.31355189185641e-17)   3   3   3   3
(6.59678541318749e-10,-1.67307775584182e-08)   1   3   5   3
(-6.21491099030754e-05,4.54118965677076e-05)   5   3   5   3
(2.1350055615434e-05,-1.68927737285336e-05)   7   3   5   3
(-1.55314358040576e-07,6.74020666185542e-08)   1   3   7   3
(2.1350055615434e-05,-1.68927737285336e-05)   5   3   7   3
(7.05965113256563e-06,-9.79620847323555e-07)   7   3   7   3
(1.07849558352599e-07,4.90837545570118e-07)   1   5   1   3
(7.77209803495013e-05,8.51957427884942e-08)   3   5   1   3
(0.00169593628002359,1.86171351424893e-06)   1   5   3   3
(0.383387757882807,-4.54639228547715e-17)   5   5   3   3
(-0.116548412054196,-0.000166393396466181)   7   5   3   3
(1.66290417763921e-05,7.5533986735656e-05)   1   5   5   3
(0.00827589979915894,9.99498877760074e-19)   3   5   5   3
(1.64099424782327e-09,7.46788456996983e-09)   7   5   5   3
(-1.25149762388662e-05,-5.71951063986319e-05)   1   5   7   3
(-0.00628558505262775,-8.98387423569463e-06)   3   5   7   3
(-2.67602443131201e-08,-1.22561473048597e-07)   7   5   7   3
(3.28557294016898e-08,4.06936442986657e-08)   1   7   1   3
(-7.92089045618623e-05,2.55142379097716e-08)   3   7   1   3
(-0.00116899170868648,3.77038931768139e-07)   1   7   3   3
(-0.116548412054197,0.000166393396466082)   5   7   3   3
(0.470872453941352,-5.37274358857857e-17)   7   7   3   3
(2.94324315528848e-06,3.26168546110159e-06)   1   7   5   3
(-0.00628558505262775,8.98387423569467e-06)   3   7   5   3
(-4.62466993727969e-06,-5.45083010763423e-06)   1   7   7   3
(0.00974407169185558,-5.32254328230921e-19)   3   7   7   3
(-6.42049618290401e-09,-7.44822877679268e-09)   5   7   7   3
(0.00169752174664846,1.86345395970124e-06)   1   1   1   5
(1.77962522799487e-07,-4.05183107438412e-07)   3   1   1   5
(1.21322578776014e-05,-2.27640104574593e-21)   5   1   1   5
(-1.18836219948672e-05,3.31570215762186e-09)   7   1   1   5
(6.59678541284868e-10,1.67307775584477e-08)   3   1   3   5
(1.66290417763921e-05,-7.5533986735656e-05)   5   1   3   5
(2.94324315528846e-06,-3.26168546110162e-06)   7   1   3   5
(0.383481964144833,-1.93437784927349e-17)   1   1   5   5
(-0.000190461229677598,2.09078766510872e-07)   5   1   5   5
(0.000505567337920699,1.63062399642021e-07)   7   1   5   5
(-0.116649007469727,-0.000166537014148811)   1   1   7   5
(-9.96389800259136e-05,-3.28720241850908e-08)   5   1   7   5
(-0.000407273335489833,-7.12794396605004e-07)   7   1   7   5
(1.07849558352599e-07,4.90837545570118e-07)   1   3   1   5
(0.00169593628002359,1.86171351424893e-06)   3   3   1   5
(1.66290417763921e-05,7.5533986735656e-05)   5   3   1   5
(-1.25149762388662e-05,-5.71951063986319e-05)   7   3   1   5
(7.77209803495013e-05,8.51957427884942e-08)   1   3   3   5
(0.00827589979915894,9.99498877760074e-19)   5   3   3   5
(-0.00628558505262775,-8.98387423569463e-06)   7   3   3   5
(0.383387757882807,-4.54639228547715e-17)   3   3   5   5
(-0.116548412054196,-0.000166393396466181)   3   3   7   5
(1.64099424782327e-09,7.46788456996983e-09)   5   3   7   5
(-2.67602443131201e-08,-1.22561473048597e-07)   7   3   7   5
(1.20976282227732e-05,2.71676668720889e-07)   1   5   1   5
(2.74617034925153e-05,-6.24895849896125e-05)   3   5   1   5
(-0.000190461229677595,-2.0907876650925e-07)   5   5   1   5
(-9.96386773994353e-05,-2.51615304291094e-07)   7   5   1   5
(2.74617034925153e-05,-6.24895849896125e-05)   1   5   3   5
(-6.21491099030702e-05,-4.54118965677082e-05)   3   5   3   5
(-0.000190461229677595,-2.0907876650925e-07)   1   5   5   5
(0.376455336724159,2.05161795593351e-16)   5   5   5   5
(-0.0605500797650016,-8.6445909048711e-05)   7   5   5   5
(-9.96386773994353e-05,-2.51615304291094e-07)   1   5   7   5
(-0.0605500797650016,-8.6445909048711e-05)   5   5   7   5
(0.0635828675688779,0.000181551866445808)   7   5   7   5
(-1.19330333191706e-05,-1.13482918811892e-07)   1   7   1   5
(-2.07040028217253e-05,4.72708895570904e-05)   3   7   1   5
(-9.96389800259163e-05,3.28720241863699e-08)   5   7   1   5
(-0.000358457133649714,-3.93496227256721e-07)   7   7   1   5
(-2.06949143042747e-05,4.72501388722521e-05)   1   7   3   5
(2.13500556154322e-05,1.68927737285365e-05)   3   7   3   5
(1.6409942480054e-09,-7.46788456978304e-09)   5   7   3   5
(0.000505567337920698,-1.63062399641111e-07)   1   7   5   5
(-0.060550079765002,8.64459090488945e-05)   5   7   5   5
(0.42860212073182,2.12613187486843e-16)   7   7   5   5
(-0.000407274715876242,-4.50295961653712e-07)   1   7   7   5
(-6.42049618307864e-09,7.4482287768138e-09)   3   7   7   5
(0.0635831267689506,-5.32478791961943e-17)   5   7   7   5
(-0.143584947350854,-0.000204992814997412)   7   7   7   5
(-0.00117031388538684,3.7746537788332e-07)   1   1   1   7
(-2.26298803397322e-07,5.18846280633279e-07)   3   1   1   7
(-1.18836219948672e-05,-3.31570215762285e-09)   5   1   1   7
(2.05456511906184e-05,1.11404684898642e-20)   7   1   1   7
(-1.5531435804063e-07,-6.74020666185271e-08)   3   1   3   7
(-1.25149762388662e-05,5.71951063986319e-05)   5   1   3   7
(-4.62466993727968e-06,5.45083010763424e-06)   7   1   3   7
(-0.116649007469728,0.000166537014148808)   1   1   5   7
(-9.9638677399437e-05,2.51615304292377e-07)   5   1   5   7
(-0.000407274715876241,4.50295961653309e-07)   7   1   5   7
(0.471024433526982,-5.53887980832549e-17)   1   1   7   7
(-0.00035845713364972,3.93496227257591e-07)   5   1   7   7
(0.00171028820713861,5.51625220708493e-07)   7   1   7   7
(3.28557294016898e-08,4.06936442986657e-08)   1   3   1   7
(-0.00116899170868648,3.77038931768139e-07)   3   3   1   7
(2.94324315528848e-06,3.26168546110159e-06)   5   3   1   7
(-4.62466993727969e-06,-5.45083010763423e-06)   7   3   1   7
(-7.92089045618623e-05,2.55142379097716e-08)   1   3   3   7
(-0.00628558505262775,8.98387423569467e-06)   5   3   3   7
(0.00974407169185558,-5.32254328230921e-19)   7   3   3   7
(-0.116548412054197,0.000166393396466082)   3   3   5   7
(-6.42049618290401e-09,-7.44822877679268e-09)   7   3   5   7
(0.470872453941352,-5.37274358857857e-17)   3   3   7   7
(-1.19330333191706e-05,-1.13482918811892e-07)   1   5   1   7
(-2.06949143042747e-05,4.72501388722521e-05)   3   5   1   7
(0.000505567337920698,-1.63062399641111e-07)   5   5   1   7
(-0.000407274715876242,-4.50295961653712e-07)   7   5   1   7
(-2.07040028217253e-05,4.72708895570904e-05)   1   5   3   7
(2.13500556154322e-05,1.68927737285365e-05)   3   5   3   7
(-6.42049618307864e-09,7.4482287768138e-09)   7   5   3   7
(-9.96389800259163e-05,3.28720241863699e-08)   1   5   5   7
(1.6409942480054e-09,-7.46788456978304e-09)   3   5   5   7
(-0.060550079765002,8.64459090488945e-05)   5   5   5   7
(0.0635831267689506,-5.32478791961943e-17)   7   5   5   7
(-0.000358457133649714,-3.93496227256721e-07)   1   5   7   7
(0.42860212073182,2.12613187486843e-16)   5   5   7   7
(-0.143584947350854,-0.000204992814997412)   7   5   7   7
(1.97725917589457e-05,2.12861184664877e-08)   1   7   1   7
(3.19524172253158e-05,-7.32822984602799e-05)   3   7   1   7
(-0.00040727333548983,7.12794396604597e-07)   5   7   1   7
(0.00171028820713861,-5.51625220706309e-07)   7   7   1   7
(3.19524172253158e-05,-7.32822984602799e-05)   1   7   3   7
(7.05965113256823e-06,9.7962084732242e-07)   3   7   3   7
(-2.67602443132945e-08,1.22561473048619e-07)   5   7   3   7
(-0.00040727333548983,7.12794396604597e-07)   1   7   5   7
(-2.67602443132945e-08,1.22561473048619e-07)   3   7   5   7
(0.0635828675688782,-0.000181551866445915)   5   7   5   7
(-0.143584947350854,0.000204992814997596)   7   7   5   7
(0.00171028820713861,-5.51625220706309e-07)   1   7   7   7
(-0.143584947350854,0.000204992814997596)   5   7   7   7
(0.658749224305862,1.77373634384395e-16)   7   7   7   7
(-2.54881375902353e-05,2.67630401664333e-06)   5   2   1   1
(7.60709738809356e-06,-2.11669381153701e-07)   7   2   1   1
(-0.0345551327063334,-0.0160109641130087)   3   2   3   1
(-6.14034602096942e-09,2.59898207338011e-07)   5   2   3   1
(7.07282538709353e-09,-3.26082577278874e-07)   7   2   3   1
(-6.14031714751249e-09,2.59898180367978e-07)   3   2   5   1
(8.70396233695013e-05,-1.73994211294028e-05)   5   2   5   1
(-6.62893569992018e-05,1.31537442333381e-05)   7   2   5   1
(7.0727682044837e-09,-3.26082536999299e-07)   3   2   7   1
(5.26731025242699e-06,1.52602815555446e-06)   5   2   7   1
(-8.00453572671822e-06,-2.39820115828516e-06)   7   2   7   1
(-0.0233080662193308,-0.0301188017241171)   1   4   3   1
(-5.84073542146478e-06,-7.52998899138683e-06)   5   4   3   1
(-1.34246910620082e-05,-1.73589248248556e-05)   7   4   3   1
(-1.25073732684303e-07,2.27906404437671e-07)   1   4   5   1
(-1.84176587089227e-05,3.38625873974202e-05)   5   4   5   1
(1.42971630468658e-05,-2.61611471870813e-05)   7   4   5   1
(1.56363999238827e-07,-2.86234422583026e-07)   1   4   7   1
(1.42908869819677e-05,-2.61496630781651e-05)   5   4   7   1
(-2.21451567808015e-05,4.04481953180165e-05)   7   4   7   1
(-2.55177786286353e-05,-2.37712742816632e-06)   1   6   1   1
(0.00100559643255963,3.66376391021714e-05)   7   6   1   1
(-5.70192764101601e-08,2.53640675730098e-07)   1   6   3   1
(7.69866075421964e-06,5.61654107264131e-06)   3   6   3   1
(8.87616784617659e-05,1.8162318263401e-08)   1   6   5   1
(8.31256515109247e-06,-3.76402209743316e-05)   3   6   5   1
(8.68047122775218e-07,3.0358386202473e-08)   7   6   5   1
(4.86546391921492e-06,2.52993673835115e-06)   1   6   7   1
(-6.48477076540743e-06,2.90857710568756e-05)   3   6   7   1
(3.52097506995167e-06,1.34432752363613e-07)   7   6   7   1
(7.22002495475695e-06,-2.40499109260664e-06)   1   8   1   1
(-0.000903970890851495,0.000442044262738706)   5   8   1   1
(-8.76368115087759e-08,-3.14165137728691e-07)   1   8   3   1
(2.17281341433111e-05,3.072912331429e-06)   3   8   3   1
(-5.96421294435092e-05,3.17823258205114e-05)   1   8   5   1
(8.00558427020427e-06,2.87180276462436e-05)   3   8   5   1
(-7.79724268821453e-07,3.82697668266726e-07)   5   8   5   1
(-8.35604442757781e-06,2.19593183845419e-08)   1   8   7   1
(-1.23488603668312e-05,-4.44293835316925e-05)   3   8   7   1
(-3.16804668127056e-06,1.54234167412429e-06)   5   8   7   1
(0.000313068104645424,7.04706655842158e-08)   3   2   1   3
(2.50920511679851e-05,5.73050541151157e-05)   5   2   1   3
(-3.18350636240156e-05,-7.29885968364498e-05)   7   2   1   3
(-2.5464331955888e-05,2.67380443181692e-06)   5   2   3   3
(7.59850320673445e-06,-2.1143025627731e-07)   7   2   3   3
(-1.25414055038672e-06,1.39842774194227e-07)   3   2   5   3
(0.00384201156592206,0.00874794493853626)   5   2   5   3
(-0.00291035518175766,-0.00665246368904962)   7   2   5   3
(5.3025663483422e-07,-9.63677016329954e-09)   3   2   7   3
(-0.0029116333124808,-0.00665538522885902)   5   2   7   3
(0.00449406187515987,0.0103126234003116)   7   2   7   3
(0.000277903384927756,0.000144157385357819)   1   4   1   3
(1.16199523137287e-06,4.64329801789121e-07)   5   4   1   3
(-3.03583346801042e-07,-1.41143656013887e-07)   7   4   1   3
(-1.17776679021589e-06,-4.5308948260396e-07)   1   4   5   3
(4.27681307072763e-05,1.2352017292197e-05)   5   4   5   3
(1.90467716203945e-05,7.48446691334662e-06)   7   4   5   3
(4.75187148193827e-07,2.35504175167312e-07)   1   4   7   3
(-4.96132728895953e-05,-1.50561119535754e-05)   5   4   7   3
(-2.94683282392005e-06,-2.88218164006026e-06)   7   4   7   3
(1.33595708422942e-05,6.11146637470953e-05)   1   6   1   3
(-1.24516038345594e-06,-1.24139874315616e-07)   3   6   1   3
(7.60631928659238e-09,3.48495080356941e-08)   7   6   1   3
(-2.54939453204565e-05,-2.37490716576901e-06)   1   6   3   3
(0.001004729229373,3.66060436464676e-05)   7   6   3   3
(0.00205075634520356,0.00933177324681946)   1   6   5   3
(-4.45161254555393e-05,-1.66140908636984e-08)   3   6   5   3
(2.03197077298428e-07,9.26047995704944e-07)   7   6   5   3
(-0.00154907742985768,-0.00709733190748803)   1   6   7   3
(5.18425332882452e-05,7.17923860739118e-07)   3   6   7   3
(-3.31337859208694e-06,-1.52041840398454e-05)   7   6   7   3
(-5.16031221758547e-05,-6.06458929031167e-05)   1   8   1   3
(3.1597815545803e-07,-1.1064450617128e-07)   3   8   1   3
(-2.31457624167679e-08,-2.71407153973461e-08)   5   8   1   3
(7.21186806858085e-06,-2.40227404387095e-06)   1   8   3   3
(-0.000903191327189691,0.000441663053954812)   5   8   3   3
(-0.00471171648095172,-0.00552495866242348)   1   8   5   3
(-1.88681276234426e-05,7.92403967281047e-06)   3   8   5   3
(-6.15995780903868e-07,-7.20696483340571e-07)   5   8   5   3
(0.00728727719440199,0.00856985324423912)   1   8   7   3
(4.12197747755218e-06,9.44460331611056e-09)   3   8   7   3
(1.00935464732883e-05,1.18433955006441e-05)   5   8   7   3
(-6.4277867114719e-08,2.8691680530158e-07)   3   2   1   5
(7.82231410488603e-05,3.45844967157303e-08)   5   2   1   5
(-5.95635953698894e-05,-1.00853200959855e-07)   7   2   1   5
(-8.64212134215189e-06,-4.01605067237757e-06)   3   2   3   5
(9.45749740566834e-06,-4.28549672090916e-05)   5   2   3   5
(-7.34551801497506e-06,3.29897261140601e-05)   7   2   3   5
(2.85975848872051e-06,-3.00280190992524e-07)   5   2   5   5
(-3.28621245231253e-06,9.14396793111344e-08)   7   2   5   5
(1.4969741586554e-06,-1.54746760132034e-07)   5   2   7   5
(2.63651713862441e-06,-7.32154774589294e-08)   7   2   7   5
(-1.89122900539795e-07,2.25134239856412e-07)   1   4   1   5
(-2.81209016171283e-05,3.369284160748e-05)   5   4   1   5
(2.17148164753037e-05,-2.59181221321877e-05)   7   4   1   5
(-5.82385411340094e-06,-7.54305295629899e-06)   1   4   3   5
(0.00292146622979733,0.00377513352202059)   5   4   3   5
(-0.00221497413385005,-0.00287068761525089)   7   4   3   5
(-2.82225173514723e-09,3.38142154531496e-09)   5   4   7   5
(4.64741429873453e-08,-5.54782980276369e-08)   7   4   7   5
(7.66956158289605e-05,1.53832215600922e-05)   1   6   1   5
(1.76828388870116e-05,-4.01660290417953e-05)   3   6   1   5
(8.66749303282262e-07,3.38085428660658e-08)   7   6   1   5
(1.76828389993786e-05,-4.0166027571566e-05)   1   6   3   5
(-0.00385319583440721,-0.00281770827128146)   3   6   3   5
(1.77469241622232e-09,-4.03108914586076e-09)   7   6   3   5
(2.86308413066703e-06,2.66712708334963e-07)   1   6   5   5
(0.00052198424592144,1.90178383718725e-05)   7   6   5   5
(1.49823659457766e-06,1.42004941674279e-07)   1   6   7   5
(1.77469655901145e-09,-4.03109297103344e-09)   3   6   7   5
(-0.000548101586716304,-2.07529680457834e-05)   7   6   7   5
(-5.7041849777169e-05,1.71481613938246e-05)   1   8   1   5
(2.52127365012035e-06,3.37183256790716e-05)   3   8   1   5
(-7.80207383983211e-07,3.79043284851554e-07)   5   8   1   5
(2.52016627386989e-06,3.37035232712895e-05)   1   8   3   5
(0.00358958043785108,0.000511732428340099)   3   8   3   5
(3.36686608168979e-10,4.39157587644256e-09)   5   8   3   5
(-3.11899977044082e-06,1.03893916575294e-06)   1   8   5   5
(-0.000469232535596066,0.000229456006109993)   5   8   5   5
(2.50240531009195e-06,-8.33397374212551e-07)   1   8   7   5
(5.40180760474357e-09,7.2169917113451e-08)   3   8   7   5
(0.000493080079841576,-0.000240245853116266)   5   8   7   5
(9.47287829097387e-09,2.43553440470045e-08)   3   2   1   7
(-5.94657413457162e-05,5.38241412067806e-08)   5   2   1   7
(9.21642018281689e-05,2.44131071735849e-08)   7   2   1   7
(-1.99138193220803e-05,-9.21924072258647e-06)   3   2   3   7
(-6.31207498763033e-07,-2.96388033500707e-06)   5   2   3   7
(1.14253204351209e-06,3.92318107360779e-06)   7   2   3   7
(1.50472432830853e-06,-1.61002562273471e-07)   5   2   5   7
(2.50520498723682e-06,-4.92460830000115e-08)   7   2   5   7
(5.3822020707545e-06,-5.65141622206631e-07)   5   2   7   7
(-1.11169570098183e-05,3.09332031920179e-07)   7   2   7   7
(-2.80011501003944e-09,2.59822546275335e-08)   1   4   1   7
(-8.03445918822578e-07,2.92051689367953e-06)   5   4   1   7
(7.91387347249463e-07,-4.00879380247787e-06)   7   4   1   7
(-1.3435794966444e-05,-1.73503318208891e-05)   1   4   3   7
(-0.00222318948789717,-0.0028643299912722)   5   4   3   7
(0.00344006795797301,0.0044452733130655)   7   4   3   7
(1.21997935736088e-09,-5.6166542988242e-09)   7   4   5   7
(-5.83202273574101e-05,-1.16158672305806e-05)   1   6   1   7
(-3.73360715566655e-08,-3.02878697477131e-06)   3   6   1   7
(3.38587799033391e-06,1.01857021507036e-07)   7   6   1   7
(-3.73525658514456e-08,-3.030118248472e-06)   1   6   3   7
(0.00292986914154261,0.00213607692068586)   3   6   3   7
(-3.84289229695326e-10,-5.73476387278508e-09)   7   6   3   7
(1.5070636356104e-06,1.37391533125872e-07)   1   6   5   7
(-0.000548158238048915,-1.91878780646341e-05)   7   6   5   7
(5.38846111379912e-06,5.0196610433413e-07)   1   6   7   7
(0.00123780316656331,4.50977989149507e-05)   7   6   7   7
(8.82241315046106e-05,-2.66597695659366e-05)   1   8   1   7
(2.22943273525327e-06,3.42437613442191e-06)   3   8   1   7
(-3.03355801474262e-06,1.50733884101259e-06)   5   8   1   7
(2.22943369682094e-06,3.42437760977518e-06)   1   8   3   7
(-0.00556576913431735,-0.000785325618715201)   3   8   3   7
(3.04397166444415e-09,4.87537413299474e-09)   5   8   3   7
(2.38365645163217e-06,-7.72437374473369e-07)   1   8   5   7
(3.0439911041524e-09,4.87531435868287e-09)   3   8   5   7
(0.000492391764167974,-0.000241652600270634)   5   8   5   7
(-1.05512918972103e-05,3.51463641319902e-06)   1   8   7   7
(-0.00111271082022072,0.000544118664832114)   5   8   7   7
(0.000491109914141391,0.000227687847322063)   3   2   3   2
(-7.64151862793418e-07,3.60787488376642e-05)   5   2   3   2
(1.03836416816667e-06,-4.59228646081399e-05)   7   2   3   2
(-7.64151862793418e-07,3.60787488376642e-05)   3   2   5   2
(-1.23712274509042e-06,2.46758906680108e-07)   5   2   5   2
(4.3434425647023e-07,-1.04219770620374e-07)   7   2   5   2
(1.03836416816667e-06,-4.59228646081399e-05)   3   2   7   2
(4.3434425647023e-07,-1.04219770620374e-07)   5   2   7   2
(1.12765636113565e-07,3.41089951344954e-08)   7   2   7   2
(0.000331200768283902,0.000428178414534238)   1   4   3   2
(-1.64571453889478e-08,3.08494571519898e-09)   5   4   3   2
(1.00314908437616e-07,1.36390955835815e-07)   7   4   3   2
(-1.7284245837119e-05,3.16783031443242e-05)   1   4   5   2
(-0.00263446195641777,0.004841160216966)   5   4   5   2
(0.00200828661798546,-0.00367794582794996)   7   4   5   2
(2.20586049046319e-05,-4.02915083668776e-05)   1   4   7   2
(0.00200740503277168,-0.00367633130608265)   5   4   7   2
(-0.00311807124465926,0.00569102412360245)   7   4   7   2
(-7.82883624604859e-06,3.52273951429488e-05)   1   6   3   2
(1.49577082393768e-08,-7.524619311609e-09)   3   6   3   2
(-4.47039242308805e-09,2.00849519682956e-08)   7   6   3   2
(-1.26149074298077e-06,-7.88214720706323e-10)   1   6   5   2
(0.00118973442265524,-0.00538161258816991)   3   6   5   2
(-1.30163553297587e-08,8.82647194130633e-10)   7   6   5   2
(4.46349705812352e-07,-1.69677088155675e-08)   1   6   7   2
(-0.00091002552728956,0.00408863551529029)   3   6   7   2
(-2.28282400364088e-08,-2.07858342271547e-10)   7   6   7   2
(-1.23015729875356e-05,-4.42567395556147e-05)   1   8   3   2
(-1.67020023319266e-07,-2.77468027694184e-08)   3   8   3   2
(-5.53247097437786e-09,-1.98187075250054e-08)   5   8   3   2
(3.85566758098234e-07,-2.25508855519318e-07)   1   8   5   2
(0.00112672530337194,0.00403620994798946)   3   8   5   2
(1.10608725469183e-08,-6.91819030901822e-09)   5   8   5   2
(1.17814898473352e-07,4.18953153419332e-12)   1   8   7   2
(-0.00173584839515257,-0.00625275572943998)   3   8   7   2
(2.022693190761e-08,-1.05850472207216e-08)   5   8   7   2
(0.000331200768283902,0.000428178414534238)   3   2   1   4
(-1.7284245837119e-05,3.16783031443242e-05)   5   2   1   4
(2.20586049046319e-05,-4.02915083668776e-05)   7   2   1   4
(-1.64571453889478e-08,3.08494571519898e-09)   3   2   5   4
(-0.00263446195641777,0.004841160216966)   5   2   5   4
(0.00200740503277168,-0.00367633130608265)   7   2   5   4
(1.00314908437616e-07,1.36390955835815e-07)   3   2   7   4
(0.00200828661798546,-0.00367794582794996)   5   2   7   4
(-0.00311807124465926,0.00569102412360245)   7   2   7   4
(9.69573838660448e-05,0.000532569215499313)   1   4   1   4
(-1.60302188037382e-08,-4.83596594483693e-09)   5   4   1   4
(2.62814255547786e-08,1.67256911650452e-07)   7   4   1   4
(-1.60302188037382e-08,-4.83596594483693e-09)   1   4   5   4
(2.83676748671754e-05,7.15543631511886e-05)   5   4   5   4
(-1.09962426264269e-05,-2.49052850330519e-05)   7   4   5   4
(2.62814255547786e-08,1.67256911650452e-07)   1   4   7   4
(-1.09962426264269e-05,-2.49052850330519e-05)   5   4   7   4
(8.2281497845965e-07,-7.0796386667747e-06)   7   4   7   4
(-2.31642865114551e-05,2.76708488203942e-05)   1   6   1   4
(1.67424944744134e-08,2.04370818384584e-10)   3   6   1   4
(-1.32131628060941e-08,1.57734600978686e-08)   7   6   1   4
(-0.00353320031270103,0.00423009664137667)   1   6   5   4
(-4.70854437386679e-05,-6.08909945434235e-05)   3   6   5   4
(-3.50730472880213e-07,4.19635268578404e-07)   7   6   5   4
(0.00269094712156256,-0.0032123673889452)   1   6   7   4
(1.74672073568543e-05,2.08827044593654e-05)   3   6   7   4
(5.76645978635197e-06,-6.87932626601365e-06)   7   6   7   4
(9.44880430443995e-06,-4.49522835252127e-05)   1   8   1   4
(-1.35506253615504e-07,-1.01506859965069e-07)   3   8   1   4
(4.21027020054674e-09,-2.01410783896166e-08)   5   8   1   4
(0.000857071653684483,-0.00410006280660944)   1   8   5   4
(2.52523532387628e-05,1.01739536956122e-05)   3   8   5   4
(1.11311923596632e-07,-5.35458095625507e-07)   5   8   5   4
(-0.0013368825362518,0.00635002905087265)   1   8   7   4
(4.34907858685974e-06,5.64657563775274e-06)   3   8   7   4
(-1.839553049513e-06,8.78596809556101e-06)   5   8   7   4
(-7.82883624604859e-06,3.52273951429488e-05)   3   2   1   6
(-1.26149074298077e-06,-7.88214720706323e-10)   5   2   1   6
(4.46349705812352e-07,-1.69677088155675e-08)   7   2   1   6
(1.49577082393768e-08,-7.524619311609e-09)   3   2   3   6
(0.00118973442265524,-0.00538161258816991)   5   2   3   6
(-0.00091002552728956,0.00408863551529029)   7   2   3   6
(-4.47039242308805e-09,2.00849519682956e-08)   3   2   7   6
(-1.30163553297587e-08,8.82647194130633e-10)   5   2   7   6
(-2.28282400364088e-08,-2.07858342271547e-10)   7   2   7   6
(-2.31642865114551e-05,2.76708488203942e-05)   1   4   1   6
(-0.00353320031270103,0.00423009664137667)   5   4   1   6
(0.00269094712156256,-0.0032123673889452)   7   4   1   6
(1.67424944744134e-08,2.04370818384584e-10)   1   4   3   6
(-4.70854437386679e-05,-6.08909945434235e-05)   5   4   3   6
(1.74672073568543e-05,2.08827044593654e-05)   7   4   3   6
(-1.32131628060941e-08,1.57734600978686e-08)   1   4   7   6
(-3.50730472880213e-07,4.19635268578404e-07)   5   4   7   6
(5.76645978635197e-06,-6.87932626601365e-06)   7   4   7   6
(-1.23681098399431e-06,-2.483042030683e-07)   1   6   1   6
(0.00222260986245424,-0.00504353323017018)   3   6   1   6
(-1.29365012819569e-08,-1.68864202899404e-09)   7   6   1   6
(0.00222260986245424,-0.00504353323017018)   1   6   3   6
(6.21151978104054e-05,4.54582753163941e-05)   3   6   3   6
(2.20707935482599e-07,-5.00393475478796e-07)   7   6   3   6
(-1.29365012819569e-08,-1.68864202899404e-09)   1   6   7   6
(2.20707935482599e-07,-5.00393475478796e-07)   3   6   7   6
(4.71899409592904e-06,3.44318056039741e-07)   7   6   7   6
(4.22319535210713e-07,-1.45469750733544e-07)   1   8   1   6
(0.000312816664783208,0.00417883313701708)   3   8   1   6
(1.22033573588825e-08,-4.6132779021711e-09)   5   8   1   6
(0.000312679346455712,0.00417699873875045)   1   8   3   6
(-2.70827441758194e-05,-2.77772383627415e-06)   3   8   3   6
(4.14304111990116e-08,5.45334060350763e-07)   5   8   3   6
(-2.1910752638428e-08,6.41020986988985e-09)   1   8   7   6
(6.6720561199136e-07,8.95164929088115e-06)   3   8   7   6
(-4.32340955323345e-06,1.9223917494631e-06)   5   8   7   6
(-1.23015729875356e-05,-4.42567395556147e-05)   3   2   1   8
(3.85566758098234e-07,-2.25508855519318e-07)   5   2   1   8
(1.17814898473352e-07,4.18953153419332e-12)   7   2   1   8
(-1.67020023319266e-07,-2.77468027694184e-08)   3   2   3   8
(0.00112672530337194,0.00403620994798946)   5   2   3   8
(-0.00173584839515257,-0.00625275572943998)   7   2   3   8
(-5.53247097437786e-09,-1.98187075250054e-08)   3   2   5   8
(1.10608725469183e-08,-6.91819030901822e-09)   5   2   5   8
(2.022693190761e-08,-1.05850472207216e-08)   7   2   5   8
(9.44880430443995e-06,-4.49522835252127e-05)   1   4   1   8
(0.000857071653684483,-0.00410006280660944)   5   4   1   8
(-0.0013368825362518,0.00635002905087265)   7   4   1   8
(-1.35506253615504e-07,-1.01506859965069e-07)   1   4   3   8
(2.52523532387628e-05,1.01739536956122e-05)   5   4   3   8
(4.34907858685974e-06,5.64657563775274e-06)   7   4   3   8
(4.21027020054674e-09,-2.01410783896166e-08)   1   4   5   8
(1.11311923596632e-07,-5.35458095625507e-07)   5   4   5   8
(-1.839553049513e-06,8.78596809556101e-06)   7   4   5   8
(4.22319535210713e-07,-1.45469750733544e-07)   1   6   1   8
(0.000312679346455712,0.00417699873875045)   3   6   1   8
(-2.1910752638428e-08,6.41020986988985e-09)   7   6   1   8
(0.000312816664783208,0.00417883313701708)   1   6   3   8
(-2.70827441758194e-05,-2.77772383627415e-06)   3   6   3   8
(6.6720561199136e-07,8.95164929088115e-06)   7   6   3   8
(1.22033573588825e-08,-4.6132779021711e-09)   1   6   5   8
(4.14304111990116e-08,5.45334060350763e-07)   3   6   5   8
(-4.32340955323345e-06,1.9223917494631e-06)   7   6   5   8
(1.12774870866285e-07,-3.41030344123035e-08)   1   8   1   8
(-0.00347178818127,-0.00548240920470716)   3   8   1   8
(1.62961199277011e-08,-1.59877640046932e-08)   5   8   1   8
(-0.00347178818127,-0.00548240920470716)   1   8   3   8
(-7.05508564676806e-06,-1.01195867062278e-06)   3   8   3   8