 &FCI NORB= 10,NELEC= 4,ORBSYM= 1, 1, 1, 1, 1, 1, 1, 1, 1, 1, 
 ISYM= 0 ,
 TREL=.TRUE.
 &END
(2.27526379951093,2.37934998859424e-17)   1   1   1   1
(-0.143395864306537,0.126769038997163)   3   1   1   1
(-0.143395864306537,0.126769038997163)   1   1   3   1
(0.00310106003162842,-0.0250987290128179)   3   1   3   1
(0.00172479495902841,-0.0024424422048913)   5   1   5   1
(-0.00518289866794569,0.00220236731280234)   7   1   5   1
(0.00377500628681051,-0.00326978289101045)   9   1   5   1
(-0.00518289866794569,0.00220236731280234)   5   1   7   1
(-0.00263334371245146,0.00468159026623699)   7   1   7   1
(0.00232259359049686,0.000410500376033072)   9   1   7   1
(0.00377500628681051,-0.00326978289101045)   5   1   9   1
(0.00232259359049686,0.000410500376033072)   7   1   9   1
(0.0048579896124511,-0.00492193292667519)   9   1   9   1
(-0.143395864306537,-0.126769038997164)   1   3   1   1
(0.571200556019406,-7.10320546287673e-17)   3   3   1   1
(0.0252895783155558,6.93889390390723e-18)   1   3   3   1
(-0.00805465528055777,0.0071207137967867)   3   3   3   1
(0.00074884871585941,-0.00120527628724593)   5   3   5   1
(-0.00851735988307119,-0.00528600788318875)   7   3   5   1
(0.00194663716420962,-0.000528574661550394)   9   3   5   1
(-0.00851916802083687,-0.005287130898791)   5   3   7   1
(-0.00607969170111728,0.00100776324613335)   7   3   7   1
(0.00497963380988187,0.00431690094856001)   9   3   7   1
(0.00194705011172009,-0.000528686967327627)   5   3   9   1
(0.00248324618478021,0.00457333839961999)   7   3   9   1
(0.00292664594364145,-0.00103631312250518)   9   3   9   1
(0.569251119753017,-3.98280061640257e-17)   5   5   1   1
(-0.00505701304443723,0.00447064974251263)   5   5   3   1
(0.00739266003820349,-1.0842021724855e-18)   1   5   5   1
(0.00634524477181162,-0.0069453240356352)   3   5   5   1
(0.00133295919847065,-0.00163487357054268)   1   5   7   1
(-0.000488554511396917,-0.00467492068585585)   3   5   7   1
(0.00240772344894551,-0.000431048584516257)   1   5   9   1
(-0.00191902743931749,0.0026877701035598)   3   5   9   1
(0.569236131306709,3.22505047375375e-17)   7   7   1   1
(-0.00505610313618002,0.00446984533859275)   7   7   3   1
(0.00133295919847065,0.00163487357054268)   1   7   5   1
(0.000697918378343964,0.000318265466358988)   3   7   5   1
(0.00725941358694301,-4.33680868994202e-19)   1   7   7   1
(0.00704595847541885,-0.00954168166669127)   3   7   7   1
(-0.00203719913983426,-0.00136104652672787)   1   7   9   1
(-0.00209687643102108,0.000573622896481711)   3   7   9   1
(0.569236131306708,-9.09126437312364e-17)   9   9   1   1
(-0.00505610313617983,0.00446984533859258)   9   9   3   1
(0.0024077234489455,0.000431048584516256)   1   9   5   1
(-0.00141716124538214,0.00382254695337015)   3   9   5   1
(-0.00203719913983426,0.00136104652672787)   1   9   7   1
(0.000206498790064459,0.0031855926149793)   3   9   7   1
(0.0084654259559334,-1.30104260698261e-18)   1   9   9   1
(0.00529745020362888,-0.00370431553973144)   3   9   9   1
(-0.143395864306537,-0.126769038997164)   1   1   1   3
(0.0252895783155558,6.93889390390723e-18)   3   1   1   3
(0.571200556019406,-7.10320546287673e-17)   1   1   3   3
(-0.00805465528055777,0.0071207137967867)   3   1   3   3
(0.00074884871585941,-0.00120527628724593)   5   1   5   3
(-0.00851916802083687,-0.005287130898791)   7   1   5   3
(0.00194705011172009,-0.000528686967327627)   9   1   5   3
(-0.00851735988307119,-0.00528600788318875)   5   1   7   3
(-0.00607969170111728,0.00100776324613335)   7   1   7   3
(0.00248324618478021,0.00457333839961999)   9   1   7   3
(0.00194663716420962,-0.000528574661550394)   5   1   9   3
(0.00497963380988187,0.00431690094856001)   7   1   9   3
(0.00292664594364145,-0.00103631312250518)   9   1   9   3
(0.0031010600316284,0.0250987290128179)   1   3   1   3
(-0.0080546552805578,-0.00712071379678674)   3   3   1   3
(-0.0080546552805578,-0.00712071379678674)   1   3   3   3
(0.404134258768736,-2.97296282452515e-17)   3   3   3   3
(0.00102740739245358,-0.00189404272135176)   5   3   5   3
(-0.00267922830932422,-0.0611449025795138)   7   3   5   3
(0.00315261222071218,-0.00168265049063799)   9   3   5   3
(-0.00267922830932422,-0.0611449025795138)   5   3   7   3
(-0.0116555193711791,-0.00540129767498809)   7   3   7   3
(-0.00320252597068658,0.042513672819116)   9   3   7   3
(0.00315261222071218,-0.00168265049063799)   5   3   9   3
(-0.00320252597068658,0.042513672819116)   7   3   9   3
(0.00380992888743803,0.00353092526373657)   9   3   9   3
(-0.00505701304443727,-0.00447064974251267)   5   5   1   3
(0.409598459628245,-4.88103865458376e-17)   5   5   3   3
(0.00634524477181162,0.0069453240356352)   1   5   5   3
(0.0557190378184567,-1.62630325872826e-18)   3   5   5   3
(0.000697918378343965,-0.000318265466358992)   1   5   7   3
(0.00228436810937238,-0.00534064386275294)   3   5   7   3
(-0.00141716124538214,-0.00382254695337015)   1   5   9   3
(-0.0351644996275759,-0.00137437379876793)   3   5   9   3
(-0.00505610313618004,-0.00446984533859279)   7   7   1   3
(0.409596423644182,-8.16203264006729e-18)   7   7   3   3
(-0.000488554511396915,0.00467492068585585)   1   7   5   3
(0.00228436810937239,0.00534064386275294)   3   7   5   3
(0.00704595847541884,0.00954168166669127)   1   7   7   3
(0.0708053649609781,1.73472347597681e-18)   3   7   7   3
(0.000206498790064459,-0.0031855926149793)   1   7   9   3
(-0.00112013457857009,-0.00353482474652768)   3   7   9   3
(-0.00505610313617986,-0.00446984533859263)   9   9   1   3
(0.409596423644182,-3.67538640519518e-17)   9   9   3   3
(-0.0019190274393175,-0.00268777010355979)   1   9   5   3
(-0.0351644996275759,0.00137437379876794)   3   9   5   3
(-0.00209687643102108,-0.000573622896481709)   1   9   7   3
(-0.00112013457857008,0.00353482474652769)   3   9   7   3
(0.00529745020362887,0.00370431553973144)   1   9   9   3
(0.0310360213827674,-1.30104260698261e-18)   3   9   9   3
(0.00739266003820349,-1.0842021724855e-18)   5   1   1   5
(0.00133295919847065,-0.00163487357054268)   7   1   1   5
(0.00240772344894551,-0.000431048584516257)   9   1   1   5
(0.00634524477181162,-0.0069453240356352)   5   1   3   5
(-0.000488554511396917,-0.00467492068585585)   7   1   3   5
(-0.00191902743931749,0.0026877701035598)   9   1   3   5
(0.569251119753017,-3.98280061640257e-17)   1   1   5   5
(-0.00505701304443723,0.00447064974251263)   3   1   5   5
(0.00634524477181162,0.0069453240356352)   5   3   1   5
(0.000697918378343965,-0.000318265466358992)   7   3   1   5
(-0.00141716124538214,-0.00382254695337015)   9   3   1   5
(0.0557190378184567,-1.62630325872826e-18)   5   3   3   5
(0.00228436810937238,-0.00534064386275294)   7   3   3   5
(-0.0351644996275759,-0.00137437379876793)   9   3   3   5
(-0.00505701304443727,-0.00447064974251267)   1   3   5   5
(0.409598459628245,-4.88103865458376e-17)   3   3   5   5
(0.00172479495902841,0.0024424422048913)   1   5   1   5
(0.000748848715859414,0.00120527628724593)   3   5   1   5
(0.000748848715859414,0.00120527628724593)   1   5   3   5
(0.00102740739245358,0.00189404272135175)   3   5   3   5
(0.417528828478637,-6.27002485471663e-17)   5   5   5   5
(2.2830836739956e-09,-9.73736390651282e-12)   7   5   5   5
(2.2830836739956e-09,-9.73736390651282e-12)   5   5   7   5
(-2.08654889937987e-05,0.000114074207681519)   7   5   7   5
(-0.000664590012243123,-0.000418705873595122)   9   5   7   5
(-0.000664590012243123,-0.000418705873595122)   7   5   9   5
(0.0159058197564006,-7.05582882874473e-05)   9   5   9   5
(-0.00518289866794569,-0.00220236731280234)   1   7   1   5
(-0.00851735988307119,0.00528600788318874)   3   7   1   5
(-0.00851916802083687,0.005287130898791)   1   7   3   5
(-0.00267922830932422,0.0611449025795138)   3   7   3   5
(2.2830836734971e-09,9.73740317794974e-12)   5   7   5   5
(0.417526618851541,-3.08575458442959e-17)   7   7   5   5
(-1.45114424783069e-09,-3.07388165956418e-11)   9   7   5   5
(0.0292180672427682,5.6920614055489e-19)   5   7   7   5
(0.003357285556025,0.000717066592753984)   7   7   7   5
(-0.0171981890856299,-1.75274098317304e-05)   9   7   7   5
(-2.1885040386666e-05,-0.000285826808851907)   5   7   9   5
(-0.0106607977638128,1.75394150695809e-05)   7   7   9   5
(-0.00286837486865537,0.000221547939583528)   9   7   9   5
(0.00377500628681051,0.00326978289101045)   1   9   1   5
(0.00194663716420962,0.000528574661550394)   3   9   1   5
(0.00194705011172009,0.000528686967327628)   1   9   3   5
(0.00315261222071217,0.001682650490638)   3   9   3   5
(-1.45114424852452e-09,3.07388241014176e-11)   7   9   5   5
(0.417526617241771,-4.17042554486949e-17)   9   9   5   5
(-2.18850403866673e-05,0.000285826808851906)   5   9   7   5
(-0.00106554615789133,0.00233732795978271)   7   9   7   5
(-0.00160775672181247,0.000266718151213938)   9   9   7   5
(0.0162252089840702,-1.49077798716757e-18)   5   9   9   5
(-0.00114966600536356,-3.9774557933259e-05)   7   9   9   5
(0.011180555583387,-2.29999276565403e-05)   9   9   9   5
(0.00133295919847065,0.00163487357054268)   5   1   1   7
(0.00725941358694301,-4.33680868994202e-19)   7   1   1   7
(-0.00203719913983426,-0.00136104652672787)   9   1   1   7
(0.000697918378343964,0.000318265466358988)   5   1   3   7
(0.00704595847541885,-0.00954168166669127)   7   1   3   7
(-0.00209687643102108,0.000573622896481711)   9   1   3   7
(0.569236131306709,3.22505047375375e-17)   1   1   7   7
(-0.00505610313618002,0.00446984533859275)   3   1   7   7
(-0.000488554511396915,0.00467492068585585)   5   3   1   7
(0.00704595847541884,0.00954168166669127)   7   3   1   7
(0.000206498790064459,-0.0031855926149793)   9   3   1   7
(0.00228436810937239,0.00534064386275294)   5   3   3   7
(0.0708053649609781,1.73472347597681e-18)   7   3   3   7
(-0.00112013457857009,-0.00353482474652768)   9   3   3   7
(-0.00505610313618004,-0.00446984533859279)   1   3   7   7
(0.409596423644182,-8.16203264006729e-18)   3   3   7   7
(-0.00518289866794569,-0.00220236731280234)   1   5   1   7
(-0.00851916802083687,0.005287130898791)   3   5   1   7
(-0.00851735988307119,0.00528600788318874)   1   5   3   7
(-0.00267922830932422,0.0611449025795138)   3   5   3   7
(2.2830836734971e-09,9.73740317794974e-12)   5   5   5   7
(0.0292180672427682,5.6920614055489e-19)   7   5   5   7
(-2.1885040386666e-05,-0.000285826808851907)   9   5   5   7
(0.417526618851541,-3.08575458442959e-17)   5   5   7   7
(0.003357285556025,0.000717066592753984)   7   5   7   7
(-0.0106607977638128,1.75394150695809e-05)   9   5   7   7
(-1.45114424783069e-09,-3.07388165956418e-11)   5   5   9   7
(-0.0171981890856299,-1.75274098317304e-05)   7   5   9   7
(-0.00286837486865537,0.000221547939583528)   9   5   9   7
(-0.00263334371245145,-0.00468159026623699)   1   7   1   7
(-0.00607969170111728,-0.00100776324613335)   3   7   1   7
(-0.00607969170111728,-0.00100776324613335)   1   7   3   7
(-0.011655519371179,0.00540129767498811)   3   7   3   7
(-2.08654889938039e-05,-0.000114074207681518)   5   7   5   7
(0.003357285556025,-0.000717066592753944)   7   7   5   7
(-0.00106554615789133,-0.00233732795978271)   9   7   5   7
(0.003357285556025,-0.000717066592753944)   5   7   7   7
(0.425597751644232,1.24849084094182e-18)   7   7   7   7
(1.62042140430922e-09,-1.08867507561249e-09)   9   7   7   7
(-0.00106554615789133,-0.00233732795978271)   5   7   9   7
(1.62042140430922e-09,-1.08867507561249e-09)   7   7   9   7
(-1.3682369091883e-09,-1.74836343307586e-10)   9   7   9   7
(0.00232259359049686,-0.000410500376033071)   1   9   1   7
(0.00497963380988186,-0.00431690094856)   3   9   1   7
(0.00248324618478021,-0.00457333839961999)   1   9   3   7
(-0.00320252597068659,-0.042513672819116)   3   9   3   7
(-0.000664590012243122,0.000418705873595122)   5   9   5   7
(-0.0171981890856299,1.75274098317304e-05)   7   9   5   7
(-0.00160775672181247,-0.000266718151213896)   9   9   5   7
(-0.0106607977638128,-1.7539415069558e-05)   5   9   7   7
(1.62042140444749e-09,1.08867508323166e-09)   7   9   7   7
(0.410012648452267,-9.26147996868164e-18)   9   9   7   7
(-0.00114966600536356,3.9774557933259e-05)   5   9   9   7
(0.0155851031512795,1.38739255981369e-19)   7   9   9   7
(-1.18162700025956e-09,9.4786315091673e-12)   9   9   9   7
(0.0024077234489455,0.000431048584516256)   5   1   1   9
(-0.00203719913983426,0.00136104652672787)   7   1   1   9
(0.0084654259559334,-1.30104260698261e-18)   9   1   1   9
(-0.00141716124538214,0.00382254695337015)   5   1   3   9
(0.000206498790064459,0.0031855926149793)   7   1   3   9
(0.00529745020362888,-0.00370431553973144)   9   1   3   9
(0.569236131306708,-9.09126437312368e-17)   1   1   9   9
(-0.00505610313617983,0.00446984533859258)   3   1   9   9
(-0.0019190274393175,-0.00268777010355979)   5   3   1   9
(-0.00209687643102108,-0.000573622896481709)   7   3   1   9
(0.00529745020362887,0.00370431553973144)   9   3   1   9
(-0.0351644996275759,0.00137437379876794)   5   3   3   9
(-0.00112013457857008,0.00353482474652769)   7   3   3   9
(0.0310360213827674,-1.30104260698261e-18)   9   3   3   9
(-0.00505610313617986,-0.00446984533859263)   1   3   9   9
(0.409596423644182,-3.67538640519515e-17)   3   3   9   9
(0.00377500628681051,0.00326978289101045)   1   5   1   9
(0.00194705011172009,0.000528686967327628)   3   5   1   9
(0.00194663716420962,0.000528574661550394)   1   5   3   9
(0.00315261222071217,0.001682650490638)   3   5   3   9
(-2.18850403866673e-05,0.000285826808851906)   7   5   5   9
(0.0162252089840702,-1.49077798716757e-18)   9   5   5   9
(-1.45114424852452e-09,3.07388241014176e-11)   5   5   7   9
(-0.00106554615789133,0.00233732795978271)   7   5   7   9
(-0.00114966600536356,-3.9774557933259e-05)   9   5   7   9
(0.417526617241771,-4.1704255448695e-17)   5   5   9   9
(-0.00160775672181247,0.000266718151213938)   7   5   9   9
(0.011180555583387,-2.29999276565403e-05)   9   5   9   9
(0.00232259359049686,-0.000410500376033071)   1   7   1   9
(0.00248324618478021,-0.00457333839961999)   3   7   1   9
(0.00497963380988186,-0.00431690094856)   1   7   3   9
(-0.00320252597068659,-0.042513672819116)   3   7   3   9
(-0.000664590012243122,0.000418705873595122)   5   7   5   9
(-0.0106607977638128,-1.7539415069558e-05)   7   7   5   9
(-0.00114966600536356,3.9774557933259e-05)   9   7   5   9
(-0.0171981890856299,1.75274098317304e-05)   5   7   7   9
(1.62042140444749e-09,1.08867508323166e-09)   7   7   7   9
(0.0155851031512795,1.38739255981369e-19)   9   7   7   9
(-0.00160775672181247,-0.000266718151213896)   5   7   9   9
(0.410012648452267,-9.26147996868164e-18)   7   7   9   9
(-1.18162700037518e-09,9.47863150493213e-12)   9   7   9   9
(0.00485798961245109,0.00492193292667519)   1   9   1   9
(0.00292664594364145,0.00103631312250518)   3   9   1   9
(0.00292664594364145,0.00103631312250518)   1   9   3   9
(0.00380992888743804,-0.00353092526373657)   3   9   3   9
(0.0159058197564006,7.05582882874443e-05)   5   9   5   9
(-0.00286837486865537,-0.000221547939583528)   7   9   5   9
(0.0111805555833869,2.29999276565603e-05)   9   9   5   9
(-0.00286837486865537,-0.000221547939583528)   5   9   7   9
(-1.36823691092303e-09,1.74836343709623e-10)   7   9   7   9
(-1.18162699875986e-09,-9.47862626164413e-12)   9   9   7   9
(0.0111805555833869,2.29999276565603e-05)   5   9   9   9
(-1.18162699882487e-09,-9.47862625147973e-12)   7   9   9   9
(0.425597753329352,-2.18726130706297e-17)   9   9   9   9
(-0.0538173206797673,0.156731197498947)   3   2   1   1
(-0.00838882549810838,-0.0202252872560536)   3   2   3   1
(-0.00137850045572761,0.00216373683797827)   5   2   5   1
(-0.00504023676817729,0.00217307200397263)   7   2   5   1
(-0.00177531075613569,0.00310583286444629)   9   2   5   1
(-0.00504023877439651,0.00217307255414027)   5   2   7   1
(-0.00120570553671667,0.000833410263352578)   7   2   7   1
(0.00403318922660283,-0.00291868570049704)   9   2   7   1
(-0.00177531095562178,0.00310583288139569)   5   2   9   1
(0.00337526181452079,-8.82920196338846e-05)   7   2   9   1
(-0.00210903858366435,0.00411840533921237)   9   2   9   1
(0.165699823025852,-0.00213094438706343)   1   4   1   1
(-0.0162167848302262,0.0147122577329319)   1   4   3   1
(-0.00370898385154507,0.00335701595624533)   5   4   5   1
(-0.000998373275517804,-0.00248531807745476)   7   4   5   1
(-0.006269285593686,0.00472568908923239)   9   4   5   1
(-0.000998587118738016,-0.00248584587103287)   5   4   7   1
(0.000767555334695899,-0.00392374375152703)   7   4   7   1
(0.00291798987199551,-0.000938877581784881)   9   4   7   1
(-0.00627061592850105,0.00472669165599586)   5   4   9   1
(0.000981551200148708,0.00121781255045192)   7   4   9   1
(-0.00796440132940116,0.00688832412111124)   9   4   9   1
(0.00191941922391615,-0.00170230698706948)   1   6   5   1
(-0.000568979182130708,-0.00497014908038953)   3   6   5   1
(0.00544310513211639,-0.000706290497353885)   1   6   7   1
(0.00260234700947363,0.000635917749904494)   3   6   7   1
(0.00255955842023436,-0.00249931790454072)   1   6   9   1
(-0.00019059245158514,-0.00785021768803455)   3   6   9   1
(-0.000675176872863093,0.00311247064292982)   1   8   5   1
(0.0061816188624707,0.00346728320803307)   3   8   5   1
(0.00102381175350737,-0.00358523750133577)   1   8   7   1
(-8.77077519456037e-05,-0.00301351782662076)   3   8   7   1
(0.00249315577049939,0.00427075158979242)   1   8   9   1
(0.00958949933302206,0.00384459917454045)   3   8   9   1
(0.000853181548677487,0.00571157664297605)   1  10   5   1
(0.000953065377998293,0.00432134898010398)   3  10   5   1
(0.00234205963708344,0.000656394994127424)   1  10   7   1
(-0.00149111509859197,0.00233220645947601)   3  10   7   1
(-0.00208169283184791,-0.00258052622247365)   1  10   9   1
(-0.000629742670825455,0.00184408332874049)   3  10   9   1
(0.0190440009150075,-0.0108055849900313)   3   2   1   3
(-0.00302296002945443,0.00880371113678046)   3   2   3   3
(-0.000592586081179286,0.00106356405470901)   5   2   5   3
(-0.00966659103571054,-0.00581227205968621)   7   2   5   3
(-0.00185992065508933,0.00036436588552897)   9   2   5   3
(-0.00966454237639429,-0.00581104004790931)   5   2   7   3
(0.00231528150396174,-0.00112403638522721)   7   2   7   3
(0.00906962850302461,0.00291220447537514)   9   2   7   3
(-0.00185952628015416,0.000364288475483982)   5   2   9   3
(0.00670805365328768,0.00459270180832863)   7   2   9   3
(-0.000693432794288551,0.00182035501266925)   9   2   9   3
(-0.016589766268505,-0.0142903566430807)   1   4   1   3
(0.0093074856864062,-0.000119696774679222)   1   4   3   3
(-0.00532226349060778,0.00542053316809987)   5   4   5   3
(0.00564779564058635,-0.0168272084243216)   7   4   5   3
(-0.0111245915377664,-0.00031415555023291)   9   4   5   3
(0.00564778898601386,-0.0168272179201091)   5   4   7   3
(0.0249730948110648,-0.00258026160876963)   7   4   7   3
(0.0138551326269926,0.00955661759578265)   9   4   7   3
(-0.0111245920010886,-0.000314156564849042)   5   4   9   3
(-0.00222721890016402,0.0114179338626479)   7   4   9   3
(-0.0127938952427002,0.00699150875580429)   9   4   9   3
(0.000861733293918069,-0.000860082924312654)   1   6   5   3
(-0.00130692706124166,-0.00748335656537075)   3   6   5   3
(0.00769852760030795,0.00824040051248349)   1   6   7   3
(0.0103900800782299,0.0143909264617452)   3   6   7   3
(0.00188810109707074,0.00016006275657307)   1   6   9   3
(0.00673404725759256,-0.00886046577734178)   3   6   9   3
(-0.00290136675654328,-0.00143788975349952)   1   8   5   3
(0.00123812947811103,0.00671820032761635)   3   8   5   3
(0.00809666242052518,-0.00186942359423239)   1   8   7   3
(0.0158709816516483,-0.00900991545687513)   3   8   7   3
(0.00214325021121087,0.00385927413951016)   1   8   9   3
(0.0142031432294134,0.0103770279340814)   3   8   9   3
(-0.0065346015516374,0.00975100837544951)   1  10   5   3
(-0.00662499636856047,0.0176622501435541)   3  10   5   3
(0.00133710398189752,-0.000803297821023142)   1  10   7   3
(-0.0200468866857283,-0.00598039209285101)   3  10   7   3
(0.00383039997044983,-0.00668879634441033)   1  10   9   3
(0.0012107358475179,-0.00664133973888109)   3  10   9   3
(0.00256263733398378,-0.000122103941611804)   5   2   1   5
(-0.000493268231883081,0.00151810989420282)   7   2   1   5
(-0.00689190474909012,0.0019199124406223)   9   2   1   5
(0.00413046124753495,-0.00846980062804845)   5   2   3   5
(0.00159628246557793,0.00300849859338004)   7   2   3   5
(-0.00420633046698303,0.00807769701370241)   9   2   3   5
(-0.00189792707059584,0.0055272982526824)   3   2   5   5
(-0.00408732172396002,0.0012085710936225)   5   4   1   5
(-0.00229435802025447,0.00251598536338676)   7   4   1   5
(-0.00902067259749313,-0.00123882460512346)   9   4   1   5
(0.00730239857928731,0.00209372491563904)   5   4   3   5
(0.00134867987912592,0.023773711936398)   7   4   3   5
(-0.0189911417295927,0.00861725339421488)   9   4   3   5
(0.00584358670701816,-7.51501001403294e-05)   1   4   5   5
(-0.00249774129955337,-0.000585921135396655)   1   6   1   5
(0.00139787364758653,-0.00402651245298647)   3   6   1   5
(-0.00629645107067833,0.00701091354198483)   1   6   3   5
(-0.00595475253012377,0.00471694008643906)   3   6   3   5
(-3.92932990498658e-09,-5.27814082864863e-10)   5   6   7   5
(0.00449353040658719,-0.00632031067980042)   7   6   7   5
(0.0031738764437807,-0.00549445104382045)   9   6   7   5
(-0.000477472754105909,0.00108847887742499)   7   6   9   5
(-0.00169875481871274,-0.000435236228355848)   9   6   9   5
(-0.00378622404232136,0.00527010679502272)   1   8   1   5
(0.000768359812569396,0.00860359804869849)   3   8   1   5
(0.000768522914932977,0.00860542385917689)   1   8   3   5
(0.00934628125355102,0.024784997885506)   3   8   3   5
(0.00171447825905589,-0.00184630036918534)   5   8   7   5
(-0.0042017714366422,-0.00918200264435032)   7   8   7   5
(-0.00466978391342411,-0.00112142590554266)   9   8   7   5
(-0.0006687659583095,0.000915892755676892)   5   8   9   5
(-0.00137440494002439,-0.00221139501588928)   7   8   9   5
(3.78449977877039e-05,-0.000665840030483705)   9   8   9   5
(-0.000944658609950824,-3.96307672196712e-05)   1  10   1   5
(0.00108451415908524,0.000133804750521222)   3  10   1   5
(0.00108474373859356,0.000133832444949349)   1  10   3   5
(0.00361027985455274,-0.0173584883312275)   3  10   3   5
(-0.00690327749841574,-0.00302950637091686)   5  10   7   5
(0.00157807607260943,-0.00323708143264288)   7  10   7   5
(0.0106489422770071,0.00316962966927481)   9  10   7   5
(-0.00221380236105191,-0.000583433637551803)   5  10   9   5
(0.000446774840526708,-0.000701855813960694)   7  10   9   5
(-0.00128800567643302,-0.000466034784875413)   9  10   9   5
(0.00266383747200315,0.00140986527290006)   5   2   1   7
(0.00580694602999671,9.39004426697855e-06)   7   2   1   7
(-0.000588866625414275,-0.00121802538810004)   9   2   1   7
(0.00121299193904438,-7.60482533763689e-05)   5   2   3   7
(0.0066797962655764,-0.0106267676595635)   7   2   3   7
(0.000438315580652239,-0.00180344926000063)   9   2   3   7
(-0.00189758557661549,0.00552630372601696)   3   2   7   7
(0.000480357258098819,0.00111669895561727)   5   4   1   7
(-0.00119921859878428,0.00288222258909529)   7   4   1   7
(0.00184568963956055,-0.000194883390510414)   9   4   1   7
(0.00156943347625133,0.000800182766318124)   5   4   3   7
(0.0159076810328475,0.00718699649013999)   7   4   3   7
(0.00977749076273268,-0.00602872264807696)   9   4   3   7
(0.00584253527057736,-7.51365783843013e-05)   1   4   7   7
(-0.00217459418958621,-0.00208683619594705)   1   6   1   7
(-0.00118753499894336,-0.000259842256518033)   3   6   1   7
(-0.0011872831354976,-0.000259787980029587)   1   6   3   7
(-0.00156447995706276,0.000809820783475548)   3   6   3   7
(0.000708788281325666,-3.49433542389727e-05)   7   6   5   7
(-0.00496057779767158,-0.000284802555904603)   9   6   5   7
(0.000461677122041692,-0.00124389210960758)   7   6   7   7
(-0.00184338937208223,-0.000264416301535086)   9   6   7   7
(0.00238476598855495,0.000145119394532997)   7   6   9   7
(-0.0069765634563944,-0.000437306029149609)   9   6   9   7
(0.000599422131562465,-0.000192416402480907)   1   8   1   7
(-0.00116402218257941,-0.00201527242126272)   3   8   1   7
(0.00227893640971795,-0.00382164370263336)   1   8   3   7
(-0.00746279605712,-0.0096335917878585)   3   8   3   7
(-0.00244878969097627,0.00416393539135064)   5   8   5   7
(-0.00276376072756988,0.00435613018763064)   7   8   5   7
(0.00124660825396716,0.000344262505747487)   9   8   5   7
(-0.000890523929642924,0.00194322665252954)   5   8   7   7
(-0.000725131328814391,0.000480848554690187)   9   8   7   7
(-0.00291937285235939,0.00569722842523373)   5   8   9   7
(0.00072513445724646,-0.000480846837228868)   7   8   9   7
(-9.93391830259713e-05,-0.00612170548705759)   1  10   1   7
(0.00136153924172893,-0.00249395430841104)   3  10   1   7
(-0.010456869599741,-0.00696406880344933)   1  10   3   7
(-0.0138248970667358,-0.00868077305542633)   3  10   3   7
(-0.00153029144836557,-0.000482186016499371)   5  10   5   7
(0.00173547275121154,0.00112615741617333)   7  10   5   7
(-0.000208322600814955,-0.00398240330080694)   9  10   5   7
(1.18786652079481e-05,0.000585578191936006)   5  10   7   7
(0.00273312118685615,0.000724838767736845)   9  10   7   7
(-0.00215619711438976,-0.00195731231346906)   5  10   9   7
(-0.00273312253193041,-0.000724840702676449)   7  10   9   7
(-1.70529516503311e-09,-8.8372647622046e-10)   9  10   9   7
(-0.00632853738631422,0.00202995687228787)   5   2   1   9
(-0.000146053105301678,-0.000447683232608803)   7   2   1   9
(-0.00245496658674162,0.000416554509480257)   9   2   1   9
(-0.00441590587983966,0.00754420370421446)   5   2   3   9
(-0.000945242256665185,-0.00228377345469867)   7   2   3   9
(0.000436401772620571,-0.00387917705191544)   9   2   3   9
(-0.00189758557661542,0.00552630372601675)   3   2   9   9
(-0.00859270827639914,-0.00161648636811172)   5   4   1   9
(0.00183181906925499,-0.00165938031024737)   7   4   1   9
(-0.00965573426911841,-0.000722953760813134)   9   4   1   9
(-0.0201875100391498,0.00368509017314813)   5   4   3   9
(0.000188683126803632,-0.0166393713572702)   7   4   3   9
(-0.00731665110715939,0.00024955679436607)   9   4   3   9
(0.00584253527057715,-7.51365783842982e-05)   1   4   9   9
(0.00664265339668765,-0.000215087081754374)   1   6   1   9
(0.00631823786227464,-0.00604380053391628)   3   6   1   9
(0.00631689739081068,-0.0060425181644443)   1   6   3   9
(0.00876097081415309,-0.0185569559023756)   3   6   3   9
(-0.00159017181009774,0.00256522205073196)   7   6   5   9
(0.000647348260182228,4.75668321410086e-05)   9   6   5   9
(2.40959657642217e-09,8.54620496873261e-10)   5   6   7   9
(-0.00637955145514073,0.00878201786691883)   7   6   7   9
(-8.32203980490206e-05,0.000572297923412988)   9   6   7   9
(-0.00115911273811437,0.00237524768536514)   7   6   9   9
(-0.00159362195842539,-0.000305137296629967)   9   6   9   9
(-0.00070775980261065,0.00223066073021139)   1   8   1   9
(0.00464114383143197,0.00805806976977549)   3   8   1   9
(-0.000760003340945273,-0.00336490358929267)   1   8   3   9
(0.00734074152350688,-0.00286461710594683)   3   8   3   9
(0.000191784693034332,-0.000612507784633645)   5   8   5   9
(-0.00214018317194405,-0.00335856955650242)   7   8   5   9
(-0.00012774498143582,-0.000187995158208937)   9   8   5   9
(-0.00422143723023579,-0.000789544230089914)   5   8   7   9
(0.00146356499004769,0.00241936470927259)   9   8   7   9
(-0.00125257519582702,0.00105025849528907)   5   8   9   9
(-0.00146356574354337,-0.00241936367590241)   7   8   9   9
(-0.00182123156191479,-0.000758610877296017)   1  10   1   9
(-0.00387721062790342,0.00329734625162511)   3  10   1   9
(-0.0023520304140121,-0.000279071843191525)   1  10   3   9
(-0.00542093094812825,0.0180066165979088)   3  10   3   9
(0.000193401355294628,6.92422721594489e-05)   5  10   5   9
(0.000875004855716126,-0.000990023275921713)   7  10   5   9
(1.40220171870658e-05,-2.77390107578047e-07)   9  10   5   9
(0.0105891599611826,0.00335501103889883)   5  10   7   9
(-0.000257737735804136,0.000831025254076269)   9  10   7   9
(0.000111930488119432,-6.93443739364228e-05)   5  10   9   9
(0.000257737787728294,-0.000831025416999731)   7  10   9   9
(-0.0149588441584335,-0.0116460709011924)   3   2   3   2
(0.00109308614628412,-0.00191072863718539)   5   2   5   2
(-0.00617317475286101,0.00334265677607156)   7   2   5   2
(-0.000287181666660298,-0.0019585187489074)   9   2   5   2
(-0.00617317475286101,0.00334265677607156)   5   2   7   2
(0.000375817062321738,-0.00448274316894164)   7   2   7   2
(0.00421205840285353,-0.00360681648760185)   9   2   7   2
(-0.000287181666660298,-0.0019585187489074)   5   2   9   2
(0.00421205840285353,-0.00360681648760185)   7   2   9   2
(0.00150404140939378,-0.00389527422738941)   9   2   9   2
(-0.00592567863121259,0.0180078960112875)   1   4   3   2
(0.00304170457516106,-0.00302860207478782)   5   4   5   2
(-0.00267393396894752,-0.00198141844658004)   7   4   5   2
(0.00218990621397117,-0.00455152648853086)   9   4   5   2
(-0.00267450302380814,-0.00198183834589029)   5   4   7   2
(0.00351670302405382,-0.00446928285176616)   7   4   7   2
(0.00250182659026278,-0.00101170206422026)   9   4   7   2
(0.00219037067353333,-0.00455249216759659)   5   4   9   2
(0.0019651137532648,0.00143975682248166)   7   4   9   2
(0.00496352199583377,-0.00625997935459966)   9   4   9   2
(-0.00157552588597798,0.00153734892346527)   1   6   5   2
(0.000690609560104485,0.00423644392384517)   3   6   5   2
(0.00685353719413395,-0.00152001859786401)   1   6   7   2
(0.00316863654000951,-0.0010199909444168)   3   6   7   2
(-0.000261377222983212,0.00196212913539623)   1   6   9   2
(0.00242520688284328,0.00443184873438602)   3   6   9   2
(-0.00376084229760402,-0.000875444702098637)   1   8   5   2
(-0.00574214344933346,0.000405985840528332)   3   8   5   2