 &FCI NORB=   6,NELEC= 8,MS2=0,
  ORBSYM=1,1,1,1,1,1,
  ISYM=1,
 &END
 0.7536837763246884    1    1    1    1
 0.1537464486772083    2    1    2    1
 0.67888825999837    2    2    1    1
 0.6633346628638096    2    2    2    2
 0.01732552641573345    3    1    1    1
 0.01482169567271715    3    1    2    2
 0.1263404610268921    3    1    3    1
 0.01776924258635038    3    2    2    1
 0.04057775688843264    3    2    3    2
 0.6798622931063816    3    3    1    1
 0.6051145099743063    3    3    2    2
 -0.07056292694417143    3    3    3    1
 0.7275203226436285    3    3    3    3
 0.1289948896489176    4    1    4    1
 0.03018141611209634    4    2    4    2
 -0.03100578185457984    4    3    4    1
 0.0430987511001561    4    3    4    3
 0.7140833493652747    4    4    1    1
 0.6218011791697372    4    4    2    2
 -0.03774524711248642    4    4    3    1
 0.6640515682981571    4    4    3    3
 0.7606739465903882    4    4    4    4
 0.1084677114016299    5    1    1    1
 0.07843358209926862    5    1    2    2
 0.0169666819974519    5    1    3    1
 0.07628921167259214    5    1    3    3
 0.09812651425125858    5    1    4    4
 0.03607451923625385    5    1    5    1
 -0.0005777566636403985    5    2    2    1
 -0.005178297343422658    5    2    3    2
 0.01880189899026757    5    2    5    2
 0.05898506504648415    5    3    1    1
 0.03791942304237651    5    3    2    2
 -0.003616401341640518    5    3    3    1
 0.05786058492606843    5    3    3    3
 0.05452792372516341    5    3    4    4
 0.01999729014682805    5    3    5    1
 0.02003389385405322    5    3    5    3
 0.02156409105496784    5    4    4    1
 0.0006957897554194297    5    4    4    3
 0.01126079029493568    5    4    5    4
 0.3665752005925992    5    5    1    1
 0.3565013337017248    5    5    2    2
 0.02948754394936213    5    5    3    1
 0.3398847519559418    5    5    3    3
 0.3465809407272994    5    5    4    4
 0.01897086365780442    5    5    5    1
 0.001670185491995419    5    5    5    3
 0.3010107494959382    5    5    5    5
 -0.03988051446437563    6    1    2    1
 0.007779293345637159    6    1    3    2
 -0.01044689608008157    6    1    5    2
 0.01886755620197498    6    1    6    1
 -0.1247205204866354    6    2    1    1
 -0.1064072831346507    6    2    2    2
 0.02281620780383295    6    2    3    1
 -0.11342689399136    6    2    3    3
 -0.1211374824322193    6    2    4    4
 -0.03218030162003965    6    2    5    1
 -0.02188730896194104    6    2    5    3
 -0.01266933081237161    6    2    5    5
 0.05017089819596186    6    2    6    2
 0.02437640154642924    6    3    2    1
 -0.006279226124585448    6    3    3    2
 -0.007984217507856278    6    3    5    2
 -0.00459688286970274    6    3    6    1
 0.01247776737552966    6    3    6    3
 -0.01050013808342676    6    4    4    2
 0.005864078962551211    6    4    6    4
 -0.05049804587821023    6    5    2    1
 -0.01695878582438197    6    5    3    2
 0.02423290801283011    6    5    5    2
 -0.0008253605017855758    6    5    6    1
 -0.0183107443359506    6    5    6    3
 0.07389892696074878    6    5    6    5
 0.3455166620680932    6    6    1    1
 0.3479721206472277    6    6    2    2
 0.01012574774415623    6    6    3    1
 0.3265026957093387    6    6    3    3
 0.3286213881089911    6    6    4    4
 0.01390953692629696    6    6    5    1
 -0.001696445243012095    6    6    5    3
 0.2890436734678004    6    6    5    5
 -0.01315414354956171    6    6    6    2
 0.2955007739421918    6    6    6    6
 -5.828212701739191    1    1  0  0
 -4.948969842233747    2    2  0  0
 0.08584781427869781    3    1  0  0
 -4.982197026567643    3    3  0  0
 -5.051318303919366    4    4  0  0
 -0.5967963528041567    5    1  0  0
 -0.3482417186246027    5    3  0  0
 -2.547749389412258    5    5  0  0
 0.7683171638287943    6    2  0  0
 -2.353673324926877    6    6  0  0
 -52.16857123015488  0  0  0  0
