 &FCI NORB= 4, NMODE= 4
 &END
0.1    1    1    1
0.1    2    2    2
0.1    3    3    3
0.1    4    4    4
-0.1    1    0    0
-0.1    2    0    0
-0.1    3    0    0
-0.1    4    0    0
