 &FCI NORB=   4,NELEC= 4,MS2=0,
  ORBSYM=1,1,1,1
  ISYM=1,
 &END
 4    1    1    1    1
 4    2    2    2    2
 4    3    3    3    3
 4    4    4    4    4
 -0.04    1    1  0  0
 -1    2    1  0  0
 -0.04    2    2  0  0
 -1    3    2  0  0
 -0.04    3    3  0  0
 1    4    1  0  0
 -1    4    3  0  0
 -0.04    4    4  0  0
 0.08  0  0  0  0
