 &FCI NORB=   6,NELEC= 4,MS2=0,
  ORBSYM=1,1,1,3,4,1
  ISYM=1,
 &END
 1.645404429134886    1    1    1    1
 -0.1627842602350304    2    1    1    1
 0.03169328463140016    2    1    2    1
 0.4683749424730584    2    2    1    1
 0.01485793928660285    2    2    2    1
 0.5242631614249798    2    2    2    2
 -0.1258894294564965    3    1    1    1
 0.01365812943206387    3    1    2    1
 -0.02570630548977991    3    1    2    2
 0.01945911352704619    3    1    3    1
 0.001949914611434151    3    2    1    1
 -0.006541618864148182    3    2    2    1
 -0.0388117945419912    3    2    2    2
 0.0006203134405977909    3    2    3    1
 0.009465912593114233    3    2    3    2
 0.394092442422241    3    3    1    1
 -0.01630231734070901    3    3    2    1
 0.2466468798593218    3    3    2    2
 0.003257871343113265    3    3    3    1
 -0.001389412042353428    3    3    3    2
 0.3390040097847549    3    3    3    3
 0.009890824673541151    4    1    4    1
 0.008311547610648321    4    2    4    1
 0.02718210672969922    4    2    4    2
 0.01024956115767666    4    3    4    1
 0.01955815485481572    4    3    4    2
 0.04236237499103533    4    3    4    3
 0.3960890288136369    4    4    1    1
 -0.006004206392804539    4    4    2    1
 0.3004990773899022    4    4    2    2
 -0.004381943726290845    4    4    3    1
 0.000815110628976522    4    4    3    2
 0.2827504940977405    4    4    3    3
 0.3129455111594085    4    4    4    4
 0.009890824673541151    5    1    5    1
 0.008311547610648321    5    2    5    1
 0.02718210672969922    5    2    5    2
 0.01024956115767666    5    3    5    1
 0.01955815485481572    5    3    5    2
 0.04236237499103533    5    3    5    3
 0.0168691395136909    5    4    5    4
 0.3960890288136369    5    5    1    1
 -0.006004206392804539    5    5    2    1
 0.3004990773899022    5    5    2    2
 -0.004381943726290845    5    5    3    1
 0.000815110628976522    5    5    3    2
 0.2827504940977405    5    5    3    3
 0.2792072321320269    5    5    4    4
 0.3129455111594085    5    5    5    5
 -0.06905424120520449    6    1    1    1
 0.01098744528126797    6    1    2    1
 0.00542388967783004    6    1    2    2
 0.009185266349198714    6    1    3    1
 -0.004112860235424564    6    1    3    2
 -0.0003219668496364102    6    1    3    3
 -0.003274609856551327    6    1    4    4
 -0.003274609856551327    6    1    5    5
 0.007097740039801281    6    1    6    1
 0.08876830569206763    6    2    1    1
 0.01254777486892671    6    2    2    1
 0.1599353742413633    6    2    2    2
 -0.01296156116476531    6    2    3    1
 -0.02894836883611599    6    2    3    2
 0.01538590563695818    6    2    3    3
 0.02294336686936801    6    2    4    4
 0.02294336686936801    6    2    5    5
 0.008411463629505095    6    2    6    1
 0.1224156456754132    6    2    6    2
 0.02106820132305783    6    3    1    1
 -0.01097105183923556    6    3    2    1
 -0.04857828401652855    6    3    2    2
 0.00516777666594958    6    3    3    1
 0.004836763590793785    6    3    3    2
 0.03633310444625579    6    3    3    3
 -0.0004067264046344525    6    3    4    4
 -0.0004067264046344525    6    3    5    5
 -0.001586795087036357    6    3    6    1
 -0.02898790189331858    6    3    6    2
 0.02693212312352033    6    3    6    3
 -0.003633875938317124    6    4    4    1
 -0.01612660393665111    6    4    4    2
 -0.01219953605771055    6    4    4    3
 0.01533194572881221    6    4    6    4
 -0.003633875938317124    6    5    5    1
 -0.01612660393665111    6    5    5    2
 -0.01219953605771055    6    5    5    3
 0.01533194572881221    6    5    6    5
 0.3837758525700991    6    6    1    1
 0.01486416463205984    6    6    2    1
 0.4593909486807415    6    6    2    2
 -0.01612309688045629    6    6    3    1
 -0.0361319290495157    6    6    3    2
 0.2442613484580481    6    6    3    3
 0.2724727424378766    6    6    4    4
 0.2724727424378766    6    6    5    5
 0.01007660352231828    6    6    6    1
 0.155720122978594    6    6    6    2
 -0.03986336510963032    6    6    6    3
 0.4397587617948217    6    6    6    6
 -4.921360416512609    1    1  0  0
 0.1479263186132408    2    1  0  0
 -1.745976863336321    2    2  0  0
 0.1707604245241557    3    1  0  0
 0.04857005432084103    3    2  0  0
 -1.175705192726433    3    3  0  0
 -1.19816454815613    4    4  0  0
 -1.19816454815613    5    5  0  0
 0.07075423777617043    6    1  0  0
 -0.3264845364210687    6    2  0  0
 0.03525706995146798    6    3  0  0
 -0.9438209671436089    6    6  0  0
 1.58753163276  0  0  0  0
