 &FCI NORB= 8
 &END
0.3872983346207417    1    1    1
0.3872983346207417    2    2    2
0.3872983346207417    3    3    3
0.3872983346207417    4    4    4
0.3872983346207417    5    5    5
0.3872983346207417    6    6    6
0.3872983346207417    7    7    7
0.3872983346207417    8    8    8
