 &FCI NORB=   8,NELEC= 8,MS2=0,
  ORBSYM=1,1,1,1,1,1,1,1
  ISYM=1,
 &END
 4    1    1    1    1
 4    2    2    2    2
 4    3    3    3    3
 4    4    4    4    4
 4    5    5    5    5
 4    6    6    6    6
 4    7    7    7    7
 4    8    8    8    8
 -0.6000000000000001    1    1  0  0
 -1    2    1  0  0
 -0.6000000000000001    2    2  0  0
 -1    3    2  0  0
 -0.6000000000000001    3    3  0  0
 -1    4    3  0  0
 -0.6000000000000001    4    4  0  0
 -1    5    4  0  0
 -0.6000000000000001    5    5  0  0
 -1    6    5  0  0
 -0.6000000000000001    6    6  0  0
 -1    7    6  0  0
 -0.6000000000000001    7    7  0  0
 1    8    1  0  0
 -1    8    7  0  0
 -0.6000000000000001    8    8  0  0
 2.4  0  0  0  0
