 &FCI NORB=   9,NELEC= 7,MS2=3,
  ORBSYM=1,1,1,1,1,1,1,1,1
  ISYM=1, UHF=TRUE
 &END
 4.118000736791725    1    1    1    1
 -0.4209229204939736    2    1    1    1
 0.06888654263025917    2    1    2    1
 0.9908280669211792    2    2    1    1
 -0.01904002882108878    2    2    2    1
 0.6990903324446502    2    2    2    2
 0.02877068412215421    3    1    3    1
 0.03189972085796179    3    2    3    1
 0.1391089557000916    3    2    3    2
 0.9504297507720297    3    3    1    1
 -0.01236968976156964    3    3    2    1
 0.6778193208990597    3    3    2    2
 0.7085025264743374    3    3    3    3
 0.02877068412215424    4    1    4    1
 0.03189972085796183    4    2    4    1
 0.1391089557000917    4    2    4    2
 0.03579916399559366    4    3    4    3
 0.9504297507720303    4    4    1    1
 -0.01236968976156965    4    4    2    1
 0.6778193208990598    4    4    2    2
 0.6369041984831505    4    4    3    3
 0.7085025264743379    4    4    4    4
 0.02877068412215419    5    1    5    1
 0.03189972085796177    5    2    5    1
 0.1391089557000916    5    2    5    2
 0.03579916399559362    5    3    5    3
 0.03579916399559364    5    4    5    4
 0.9504297507720293    5    5    1    1
 -0.0123696897615696    5    5    2    1
 0.6778193208990594    5    5    2    2
 0.6369041984831498    5    5    3    3
 0.6369041984831502    5    5    4    4
 0.7085025264743368    5    5    5    5
 -0.03222246813113636    6    1    3    1
 -0.03233561568364747    6    1    3    2
 0.03624158428345631    6    1    6    1
 -0.01802033762202629    6    2    3    1
 -0.0400093364126059    6    2    3    2
 0.0187927077022456    6    2    6    1
 0.03464944811900337    6    2    6    2
 -0.427419020632181    6    3    1    1
 0.01363350984086497    6    3    2    1
 -0.1763303138331293    6    3    2    2
 -0.1846029848001723    6    3    3    3
 -0.1634067396288763    6    3    4    4
 -0.1634067396288761    6    3    5    5
 0.1292521337108296    6    3    6    3
 -0.01059812258564814    6    4    4    3
 0.01414515274194525    6    4    6    4
 -0.0105981225856481    6    5    5    3
 0.01414515274194524    6    5    6    5
 0.8001281608446983    6    6    1    1
 -0.01518684323813759    6    6    2    1
 0.5407124459481604    6    6    2    2
 0.5643677691563088    6    6    3    3
 0.51761711213408    6    6    4    4
 0.5176171121340797    6    6    5    5
 -0.1205171181973056    6    6    6    3
 0.4907369043383966    6    6    6    6
 -0.03222246813113636    7    1    4    1
 -0.03233561568364746    7    1    4    2
 0.03624158428345627    7    1    7    1
 -0.01802033762202628    7    2    4    1
 -0.04000933641260584    7    2    4    2
 0.01879270770224557    7    2    7    1
 0.03464944811900332    7    2    7    2
 -0.0105981225856481    7    3    4    3
 0.01414515274194524    7    3    6    4
 0.01414515274194523    7    3    7    3
 -0.4274190206321808    7    4    1    1
 0.01363350984086493    7    4    2    1
 -0.1763303138331291    7    4    2    2
 -0.1634067396288761    7    4    3    3
 -0.1846029848001724    7    4    4    4
 -0.163406739628876    7    4    5    5
 0.1009618282269391    7    4    6    3
 -0.1136272528372202    7    4    6    6
 0.1292521337108295    7    4    7    4
 -0.01059812258564809    7    5    5    4
 0.01414515274194523    7    5    7    5
 0.02337532851111451    7    6    4    3
 -0.003444932680042731    7    6    6    4
 -0.003444932680042702    7    6    7    3
 0.02274618496305394    7    6    7    6
 0.8001281608446976    7    7    1    1
 -0.01518684323813758    7    7    2    1
 0.54071244594816    7    7    2    2
 0.5176171121340797    7    7    3    3
 0.5643677691563087    7    7    4    4
 0.5176171121340795    7    7    5    5
 -0.1136272528372201    7    7    6    3
 0.4452445344122887    7    7    6    6
 -0.1205171181973056    7    7    7    4
 0.4907369043383966    7    7    7    7
 -0.03222246813113635    8    1    5    1
 -0.03233561568364746    8    1    5    2
 0.03624158428345631    8    1    8    1
 -0.01802033762202629    8    2    5    1
 -0.0400093364126059    8    2    5    2
 0.0187927077022456    8    2    8    1
 0.03464944811900338    8    2    8    2
 -0.01059812258564811    8    3    5    3
 0.01414515274194524    8    3    6    5
 0.01414515274194524    8    3    8    3
 -0.01059812258564814    8    4    5    4
 0.01414515274194524    8    4    7    5
 0.01414515274194525    8    4    8    4
 -0.4274190206321808    8    5    1    1
 0.01363350984086492    8    5    2    1
 -0.1763303138331292    8    5    2    2
 -0.1634067396288761    8    5    3    3
 -0.1634067396288763    8    5    4    4
 -0.1846029848001722    8    5    5    5
 0.100961828226939    8    5    6    3
 -0.1136272528372201    8    5    6    6
 0.1009618282269391    8    5    7    4
 -0.1136272528372201    8    5    7    7
 0.1292521337108295    8    5    8    5
 0.0233753285111145    8    6    5    3
 -0.003444932680042716    8    6    6    5
 -0.003444932680042727    8    6    8    3
 0.02274618496305395    8    6    8    6
 0.02337532851111449    8    7    5    4
 -0.003444932680042694    8    7    7    5
 -0.003444932680042733    8    7    8    4
 0.02274618496305393    8    7    8    7
 0.8001281608446982    8    8    1    1
 -0.01518684323813757    8    8    2    1
 0.5407124459481603    8    8    2    2
 0.5176171121340798    8    8    3    3
 0.5176171121340799    8    8    4    4
 0.5643677691563085    8    8    5    5
 -0.1136272528372202    8    8    6    3
 0.4452445344122887    8    8    6    6
 -0.1136272528372203    8    8    7    4
 0.4452445344122888    8    8    7    7
 -0.1205171181973057    8    8    8    5
 0.4907369043383965    8    8    8    8
 -0.3423798300065314    9    1    1    1
 0.05628369020925496    9    1    2    1
 -0.01452217082478895    9    1    2    2
 -0.009185286135383273    9    1    3    3
 -0.009185286135383287    9    1    4    4
 -0.009185286135383264    9    1    5    5
 0.01019036804878989    9    1    6    3
 -0.01162630734083192    9    1    6    6
 0.01019036804878989    9    1    7    4
 -0.0116263073408319    9    1    7    7
 0.01019036804878989    9    1    8    5
 -0.01162630734083192    9    1    8    8
 0.04619020329138812    9    1    9    1
 0.37693484886861    9    2    1    1
 -0.01583802089030675    9    2    2    1
 0.1524045159443043    9    2    2    2
 0.1449018039937821    9    2    3    3
 0.1449018039937823    9    2    4    4
 0.1449018039937821    9    2    5    5
 -0.0965392843494584    9    2    6    3
 0.09664014317790276    9    2    6    6
 -0.09653928434945835    9    2    7    4
 0.09664014317790265    9    2    7    7
 -0.09653928434945838    9    2    8    5
 0.09664014317790279    9    2    8    8
 -0.01196115361705743    9    2    9    1
 0.08706994808354085    9    2    9    2
 0.01606638735835472    9    3    3    1
 0.02580943439069881    9    3    3    2
 -0.01688352273624695    9    3    6    1
 -0.03494410225471001    9    3    6    2
 0.03760139381770367    9    3    9    3
 0.01606638735835474    9    4    4    1
 0.02580943439069889    9    4    4    2
 -0.01688352273624695    9    4    7    1
 -0.03494410225471001    9    4    7    2
 0.03760139381770367    9    4    9    4
 0.0160663873583547    9    5    5    1
 0.02580943439069878    9    5    5    2
 -0.01688352273624694    9    5    8    1
 -0.03494410225471001    9    5    8    2
 0.03760139381770365    9    5    9    5
 -0.02153029558573564    9    6    3    1
 -0.09305904035065934    9    6    3    2
 0.02204154958057391    9    6    6    1
 0.01466412168998497    9    6    6    2
 -0.002410344401729516    9    6    9    3
 0.0811775878269571    9    6    9    6
 -0.02153029558573564    9    7    4    1
 -0.09305904035065933    9    7    4    2
 0.02204154958057388    9    7    7    1
 0.0146641216899849    9    7    7    2
 -0.002410344401729572    9    7    9    4
 0.08117758782695711    9    7    9    7
 -0.02153029558573563    9    8    5    1
 -0.09305904035065933    9    8    5    2
 0.02204154958057391    9    8    8    1
 0.01466412168998499    9    8    8    2
 -0.002410344401729502    9    8    9    5
 0.08117758782695707    9    8    9    8
 0.7399481398738299    9    9    1    1
 -0.01337643406253981    9    9    2    1
 0.5420969263294368    9    9    2    2
 0.531695882783271    9    9    3    3
 0.5316958827832711    9    9    4    4
 0.5316958827832707    9    9    5    5
 -0.1019627172620632    9    9    6    3
 0.4556647043566812    9    9    6    6
 -0.1019627172620631    9    9    7    4
 0.4556647043566809    9    9    7    7
 -0.1019627172620632    9    9    8    5
 0.4556647043566812    9    9    8    8
 -0.01023346252013351    9    9    9    1
 0.08578206135702628    9    9    9    2
 0.4580848937875502    9    9    9    9
 0  0  0  0  0
 4.125226790223333    1    1    1    1
 -0.4221109766578526    2    1    1    1
 -0.3784045867415139    1    1    2    1
 0.06246939108976653    2    1    2    1
 0.9911457104430225    2    2    1    1
 0.9339648140393522    1    1    2    2
 -0.01661740571231028    2    2    2    1
 -0.01608770474454668    2    1    2    2
 0.6775656833099032    2    2    2    2
 0.01824456484467631    3    1    3    1
 0.02046442036143992    3    2    3    1
 0.02389543497927858    3    1    3    2
 0.1153089484982435    3    2    3    2
 0.9506319032583583    3    3    1    1
 0.7366168614270654    1    1    3    3
 -0.010421836479949    3    3    2    1
 -0.006014178095353439    2    1    3    3
 0.657435294354649    3    3    2    2
 0.5850279473771813    2    2    3    3
 0.6026931002945143    3    3    3    3
 0.0004547340159271137    4    1    3    1
 0.007480721658964812    3    1    4    1
 0.0005955783107440476    4    1    3    2
 0.008390917182146702    3    2    4    1
 -0.001469705237171684    4    1    4    1
 0.0005100624834740072    4    2    3    1
 0.009797717814685766    3    1    4    2
 0.002874001198128829    4    2    3    2
 0.04727951342478688    3    2    4    2
 -0.001648527440196379    4    2    4    1
 -0.001924915514978084    4    1    4    2
 -0.009288802826671903    4    2    4    2
 0.001278747596387753    4    3    3    3
 0.02103637402437109    3    3    4    3
 -0.001804303972230235    4    3    4    3
 0.9506319032583589    4    4    1    1
 0.7366168614270652    1    1    4    4
 -0.01042183647994903    4    4    2    1
 -0.006014178095353401    2    1    4    4
 0.6574352943546491    4    4    2    2
 0.5850279473771811    2    2    4    4
 0.5514198298516946    4    4    3    3
 0.5600133901856961    3    3    4    4
 -0.0001030105160321319    4    4    4    3
 -0.001694601616313259    4    3    4    4
 0.5517208889895885    4    4    4    4
 -0.007468148947566636    5    1    3    1
 0.0001372413544682853    3    1    5    1
 -0.00978125097043454    5    1    3    2
 0.00015393980578451    3    2    5    1
 0.01818578972925854    5    1    4    1
 0.01965902748333371    4    1    5    1
 0.02381845550836097    5    1    4    2
 0.02205098371712789    4    2    5    1
 0.001532312409410953    5    1    5    1
 -0.008376814721861909    5    2    3    1
 0.0001797489767546833    3    1    5    2
 -0.04720005161556096    5    2    3    2
 0.0008673901739470859    3    2    5    2
 0.02039849395108476    5    2    4    1
 0.02574799766303692    4    1    5    2
 0.1149374791420607    5    2    4    2
 0.1242486081142537    4    2    5    2
 0.001718752161983554    5    2    5    1
 0.002006913941699477    5    1    5    2
 0.009684491474815503    5    2    5    2
 -0.0210010185771923    5    3    3    3
 0.0003859334160289513    3    3    5    3
 0.02126446324785825    5    3    4    3
 0.02764617052151696    4    3    5    3
 0.02096860505746068    5    3    4    4
 0.001377886200939943    4    4    5    3
 0.002075502999921007    5    3    5    3
 -0.0005234368480404267    5    4    3    3
 0.0001582422211099928    3    3    5    4
 0.001483190812011442    5    4    4    3
 0.01131809528613036    4    3    5    4
 -0.004119611726524139    5    4    4    4
 -0.004453343041908308    4    4    5    4
 -0.01126089232806433    5    4    5    3
 0.001075739576529416    5    3    5    4
 0.02737875720420727    5    4    5    4
 0.9506319032583579    5    5    1    1
 0.7366168614270653    1    1    5    5
 -0.01042183647994898    5    5    2    1
 -0.006014178095353442    2    1    5    5
 0.6574352943546486    5    5    2    2
 0.5850279473771813    2    2    5    5
 0.5599844213388306    5    5    3    3
 0.5513908610048289    3    3    5    5
 -0.02093336350833901    5    5    4    3
 0.0004158540199255076    4    3    5    5
 0.6023630723097541    5    5    4    4
 0.6109566326437564    4    4    5    5
 -0.001763819616968931    5    5    5    3
 3.241351973160913e-05    5    3    5    5
 0.004295100820798432    5    5    5    4
 0.004643048574564572    5    4    5    5
 0.5517498578364538    5    5    5    5
 -0.3613838009347337    1    1    6    1
 0.0595613904079124    2    1    6    1
 -0.01534896437683572    2    2    6    1
 -0.02041735891843936    6    1    3    1
 -0.02408093189142087    6    1    3    2
 -0.00961919319688271    3    3    6    1
 -0.008371620829564245    6    1    4    1
 -0.00987377612466178    6    1    4    2
 -0.00961919319688272    4    4    6    1
 -0.0001535857948099752    6    1    5    1
 -0.0001811443428644713    6    1    5    2
 -0.009619193196882701    5    5    6    1
 0.3868756416999051    1    1    6    2
 -0.01549131621917641    2    1    6    2
 0.1614587902034394    2    2    6    2
 -0.01160030055785247    6    2    3    1
 -0.02606409770347745    6    2    3    2
 0.1533469112180297    3    3    6    2
 -0.004756409394930034    6    2    4    1
 -0.01068692303004819    6    2    4    2
 0.1533469112180297    4    4    6    2
 -8.726110895779629e-05    6    2    5    1
 -0.0001960623397856893    6    2    5    2
 0.1533469112180295    5    5    6    2
 -0.4276430327863093    6    3    1    1
 0.01161381615451361    6    3    2    1
 -0.1627947010392745    6    3    2    2
 0.01117990454447953    3    1    6    3
 0.009758942548109399    3    2    6    3
 -0.1178325150499977    6    3    3    3
 0.0002786519127463007    4    1    6    3
 0.0002432353511242416    4    2    6    3
 -0.002379139126850652    6    3    4    3
 -0.113005591544792    6    3    4    4
 -0.004576332352597232    5    1    6    3
 -0.003994682095215536    5    2    6    3
 -4.364769752476252e-05    6    3    5    3
 -1.789663272418716e-05    6    3    5    4
 -0.1120304141438366    6    3    5    5
 0.01066991636432171    6    3    6    1
 -0.01181598901679378    6    1    6    3
 -0.1005698550461116    6    3    6    2
 -0.02984445809508329    6    2    6    3
 0.004584036658756001    3    1    6    4
 0.004001407186729226    3    2    6    4
 -0.0001446218077510815    6    4    3    3
 -0.0009006059832057672    4    1    6    4
 -0.0007861392745905498    4    2    6    4
 0.0002040603657308988    6    4    4    3
 0.0001916534192216091    6    4    4    4
 0.01114388832893503    5    1    6    4
 0.009727503981089415    5    2    6    4
 -0.003126683615680509    6    4    5    3
 -0.001280036345876985    6    4    5    4
 -4.703161147052848e-05    6    4    5    5
 -0.004844846983884739    6    1    6    4
 -0.01223696404779439    6    2    6    4
 8.409875793547495e-05    3    1    6    5
 7.340983492251017e-05    3    2    6    5
 0.002375140551448282    6    5    3    3
 0.01204665896786808    4    1    6    5
 0.01051553278441386    4    2    6    5
 -0.002404935207267547    6    5    4    3
 -0.002371474697582816    6    5    4    4
 0.000938970406550129    5    1    6    5
 0.0008196275930121906    5    2    6    5
 -0.0002347320117662609    6    5    5    3
 -0.0001216623223117218    6    5    5    4
 -3.665853865456035e-06    6    5    5    5
 -8.888358537750215e-05    6    1    6    5
 -0.000224499399531383    6    2    6    5
 0.800379870631554    6    6    1    1
 0.7895853393240503    1    1    6    6
 -0.01301713544767664    6    6    2    1
 -0.01514070197520299    2    1    6    6
 0.527096609744957    6    6    2    2
 0.5633039319423401    2    2    6    6
 0.4959282178987044    6    6    3    3
 0.5518777568413522    3    3    6    6
 0.01522447109620585    6    6    4    3
 0.4650400043599374    6    6    4    4
 0.5518777568413524    4    4    6    6
 0.0002793082177843815    6    6    5    3
 0.0001145232595074312    6    6    5    4
 0.458799696684374    6    6    5    5
 0.5518777568413521    5    5    6    6
 -0.01214950902836983    6    6    6    1
 0.1013771981272137    6    6    6    2
 -0.1152743179017897    6    3    6    6
 0.4690288307730279    6    6    6    6
 -0.0005088895073491632    7    1    3    1
 0.02693820521338049    3    1    7    1
 -0.0006002017016836863    7    1    3    2
 0.02719895412902374    3    2    7    1
 0.001644736368727388    7    1    4    1
 0.001939858364291051    7    1    4    2
 -0.02200027369969364    7    1    5    1
 0.02693820521338047    5    1    7    1
 -0.02594787575960561    7    1    5    2
 0.02719895412902373    5    2    7    1
 -0.03028966442492976    6    1    7    1
 -0.01578087662777174    6    2    7    1
 -0.0002945059081157068    7    1    6    3
 0.0009518462669945359    7    1    6    4
 -0.01273205772795942    7    1    6    5
 -0.0002891300123375111    7    2    3    1
 0.01685666706242181    3    1    7    2
 -0.0006496308309418158    7    2    3    2
 0.04714300490324652    3    2    7    2
 0.0009344713139385289    7    2    4    1
 0.002099613842427863    7    2    4    2
 -0.01249964739763564    7    2    5    1
 0.01685666706242178    5    1    7    2
 -0.02808479223501301    7    2    5    2
 0.0471430049032464    5    2    7    2
 -0.01744796798821112    6    1    7    2
 -0.02966462164831041    6    2    7    2
 -0.0007438538763891482    7    2    6    3
 0.002404143740139334    7    2    6    4
 -0.03215823599583652    7    2    6    5
 0.1589106340966883    1    1    7    3
 -0.004364709790862827    2    1    7    3
 0.07250542235370794    2    2    7    3
 -0.0001446218077510802    7    3    3    3
 0.08253856341667984    3    3    7    3
 0.000204060365730897    7    3    4    3
 0.000200218234642336    4    3    7    3
 0.0001916534192216074    7    3    4    4
 0.06647249209992921    4    4    7    3
 -0.003126683615680483    7    3    5    3
 0.004744828605557245    5    3    7    3
 -0.001280036345876973    7    3    5    4
 0.000200218234642336    5    4    7    3
 -4.70316114705281e-05    7    3    5    5
 0.05989607799429304    5    5    7    3
 -0.05734715201934231    6    3    7    3
 -0.0002304227068964638    6    4    7    3
 -0.005460622769975716    6    5    7    3
 0.04939871839708418    6    6    7    3
 -0.0002304227068964636    7    3    7    3
 -0.4276430327863091    7    4    1    1
 0.37848220026905    1    1    7    4
 0.01161381615451359    7    4    2    1
 -0.01039555958335992    2    1    7    4
 -0.1627947010392743    7    4    2    2
 0.1726883285052601    2    2    7    4
 -0.1120336904174451    7    4    3    3
 0.1649070040251865    3    3    7    4
 1.165012320499782e-05    7    4    4    3
 -0.0006471074908068376    4    3    7    4
 -0.1120677391358046    7    4    4    4
 0.158319518453627    4    4    7    4
 -0.0001558340315306222    7    4    5    3
 0.01130089990980832    5    3    7    4
 0.0005036572683114258    7    4    5    4
 -0.0006471074908068355    5    4    7    4
 -0.1187670911853764    7    4    5    5
 0.1743338327016838    5    5    7    4
 0.01066991636432166    7    4    6    1
 -0.1005698550461116    7    4    6    2
 -0.1001290628022015    6    3    7    4
 0.0007447286704482839    6    4    7    4
 -0.01300572823567102    6    5    7    4
 -0.1152743179017897    7    4    6    6
 0.1094631260602068    6    6    7    4
 -0.03885738934307841    7    4    7    3
 0.0007447286704482833    7    3    7    4
 -0.09254780398353432    7    4    7    4
 0.02461948850245473    1    1    7    5
 -0.000676209764837496    2    1    7    5
 0.01123302050960689    2    2    7    5
 5.919884691941951e-05    7    5    3    3
 0.0104192130167394    3    3    7    5
 -0.0001677436087299939    7    5    4    3
 0.008655819973074413    4    3    7    5
 0.0004659134428134703    7    5    4    4
 0.01029835897569944    4    4    7    5
 0.001273566894651744    7    5    5    3
 0.0007351002905794233    5    3    7    5
 -0.003096440120032644    7    5    5    4
 0.00865581997307438    5    4    7    5
 -0.0005251122897328932    7    5    5    5
 0.01164770551581829    5    5    7    5
 -0.006159130066652584    6    3    7    5
 -0.009961617492868162    6    4    7    5
 -0.0008459958659523155    6    5    7    5
 0.007040798542392615    6    6    7    5
 -0.0002304227068964627    7    5    7    3
 -0.009961617492868155    7    3    7    5
 0.0007447286704482829    7    5    7    4
 -0.00602004425698319    7    4    7    5
 -0.009961617492868155    7    5    7    5
 0.01882211933375329    3    1    7    6
 0.07170814804630307    3    2    7    6
 0.0009254568205525171    7    6    3    3
 -0.001305813142615001    7    6    4    3
 -0.0012264192154625    7    6    4    4
 0.01882211933375328    5    1    7    6
 0.0717081480463031    5    2    7    6
 0.02000812133963739    7    6    5    3
 0.00819114617130158    7    6    5    4
 0.0003009623949099838    7    6    5    5
 -0.01936621495326262    6    1    7    6
 -0.01824877262395938    6    2    7    6
 5.177302225370049e-05    7    6    7    3
 -0.0001673309655433093    7    6    7    4
 0.002238247484753569    7    6    7    5
 0.8003798706315534    7    7    1    1
 1.013941050189662    1    1    7    7
 -0.01301713544767658    7    7    2    1
 -0.02154235490435376    2    1    7    7
 0.5270966097449568    7    7    2    2
 0.6335038194700378    2    2    7    7
 0.4588206620547026    7    7    3    3
 0.6323411063275688    3    3    7    7
 -7.455090036521375e-05    7    7    4    3
 0.4590385449530484    7    7    4    4
 0.6031333527249276    4    4    7    7
 0.0009972055362662789    7    7    5    3
 0.02920775360264133    5    3    7    7
 -0.003222979033576545    7    7    5    4
 0.5019087119352642    7    7    5    5
 0.6323411063275683    5    5    7    7
 -0.01214950902836973    7    7    6    1
 0.1013771981272134    7    7    6    2
 -0.1756578302685385    6    3    7    7
 -0.01065392361457128    6    5    7    7
 0.4690288307730272    7    7    6    6
 0.528497998369089    6    6    7    7
 0.04524430624128047    7    7    7    3
 0.1077597145917082    7    7    7    4
 -0.1650039066539673    7    4    7    7
 0.007009547747641626    7    7    7    5
 0.5040640509062473    7    7    7    7
 0.008357550800304574    8    1    3    1
 0.009857181450606916    8    1    3    2
 -0.02035158411716711    8    1    4    1
 0.03809637515875235    4    1    8    1
 -0.02400335483966132    8    1    4    2
 0.03846512981162907    4    2    8    1
 -0.00171479959672763    8    1    5    1
 -0.002022493333304752    8    1    5    2
 0.004836704338606163    8    1    6    3
 -0.01177792364641363    8    1    6    4
 -0.0009923934472561471    8    1    6    5
 -0.03028966442492976    8    1    7    1
 -0.04283605422946551    7    1    8    1
 -0.0174479679882111    8    1    7    2
 -0.02231752975313136    7    2    8    1
 -0.01936621495326263    8    1    7    6
 0.004748415385081753    8    2    3    1
 0.01066896171493492    8    2    3    2
 -0.01156293003079562    8    2    4    1
 0.02383892717608476    4    1    8    2
 -0.02598013185590457    8    2    4    2
 0.06667027690519248    4    2    8    2
 -0.0009742783480462628    8    2    5    1
 -0.002189054147969545    8    2    5    2
 0.01221639760723199    8    2    6    3
 -0.02974831376475517    8    2    6    4
 -0.00250655654878967    8    2    6    5
 -0.01578087662777174    8    2    7    1
 -0.02467515296477974    7    1    8    2
 -0.02966462164831039    8    2    7    2
 -0.04195211025770704    7    2    8    2
 -0.01824877262395937    8    2    7    6
 0.009483115867957678    1    1    8    3
 -0.0002604674565175888    2    1    8    3
 0.00432681755468339    2    2    8    3
 0.002375140551448291    8    3    3    3
 0.003966797742635561    3    3    8    3
 -0.002404935207267556    8    3    4    3
 0.01136042797510106    4    3    8    3
 -0.002371474697582825    8    3    4    4
 0.004533100428366743    4    4    8    3
 -0.0002347320117662618    8    3    5    3
 -0.0001216623223117222    8    3    5    4
 -0.004650227009986155    5    4    8    3
 -3.665853865456049e-06    8    3    5    5
 0.003966797742635558    5    5    8    3
 -0.002318844975739957    6    3    8    3
 -0.01307423657091615    6    4    8    3
 0.002699989216520055    6    6    8    3
 -0.005460622769975718    8    3    7    3
 -0.01307423657091614    7    3    8    3
 -0.01300572823567102    8    3    7    4
 -0.002970578810083353    7    4    8    3
 -0.0008459958659523153    8    3    7    5
 0.005351749790613151    7    5    8    3
 0.002937613007212575    7    6    8    3
 -0.01065392361457129    8    3    7    7
 0.00284642543699251    7    7    8    3
 -0.03064953262277441    1    1    8    4
 0.0008418336248195813    2    1    8    4
 -0.01398432093855898    2    2    8    4
 5.919884691942027e-05    8    4    3    3
 -0.01282073302844084    3    3    8    4
 -0.000167743608729996    8    4    4    3
 0.004658055718618378    4    3    8    4
 0.000465913442813476    8    4    4    4
 -0.01465102940806535    4    4    8    4
 0.001273566894651759    8    4    5    3
 -0.003096440120032682    8    4    5    4
 0.01132383020085343    5    4    8    4
 -0.0005251122897328998    8    4    5    5
 -0.01282073302844084    5    5    8    4
 0.007494531936622289    6    3    8    4
 -0.005360759520609854    6    4    8    4
 -0.008726394227922955    6    6    8    4
 -0.000230422706896463    8    4    7    3
 -0.00536075952060985    7    3    8    4
 0.0007447286704482838    8    4    7    4
 0.009600942708694375    7    4    8    4
 -0.009961617492868165    8    4    7    5
 -0.01303211773881481    7    5    8    4
 0.001204493800526254    7    6    8    4
 -0.00919967766967561    7    7    8    4
 0.005351749790613156    8    4    8    3
 -0.01303211773881482    8    4    8    4
 -0.4276430327863091    8    5    1    1
 0.409973366728957    1    1    8    5
 0.01161381615451358    8    5    2    1
 -0.01126050989555625    2    1    8    5
 -0.1627947010392744    8    5    2    2
 0.1870566578342918    2    2    8    5
 -0.1130023152711834    8    5    3    3
 0.1714923078369357    3    3    8    5
 0.002367489003645853    8    5    4    3
 8.545671195316098e-05    4    3    8    5
 -0.1177951900580296    8    5    4    4
 0.1959746638356992    4    4    8    5
 0.0001994817290554075    8    5    5    3
 -0.0004857606355872946    8    5    5    4
 0.0009541320886886622    5    4    8    5
 -0.1120710154094132    8    5    5    5
 0.1714923078369356    5    5    8    5
 0.01066991636432166    8    5    6    1
 -0.1005698550461115    8    5    6    2
 -0.1002481351977171    6    3    8    5
 -9.834851918405161e-05    6    4    8    5
 -0.1152743179017897    8    5    6    6
 0.1167257349421164    6    6    8    5
 -0.03128887220676589    8    5    7    3
 -9.834851918405156e-05    7    3    8    5
 -0.1109780016362092    8    5    7    4
 -0.1284238443208914    7    4    8    5
 -0.00757295017921842    8    5    7    5
 -0.001098070308157282    7    5    8    5
 2.209764888588991e-05    7    6    8    5
 -0.1756578302685383    8    5    7    7
 0.1230564548398882    7    7    8    5
 -0.002318844975739957    8    5    8    3
 0.007494531936622289    8    5    8    4
 -0.001098070308157284    8    4    8    5
 -0.100248135197717    8    5    8    5
 -0.01519888360745691    8    6    3    3
 0.02661849643439878    4    1    8    6
 0.1014106354997396    4    2    8    6
 0.01538954411621934    8    6    4    3
 0.01517542525414428    8    6    4    4
 0.001502085644407083    8    6    5    3
 0.0007785356008094856    8    6    5    4
 2.345835331262293e-05    8    6    5    5
 -0.02738796383873665    7    1    8    6
 -0.02580766174146612    7    2    8    6
 0.001226931789825917    8    6    7    3
 0.002922220064333919    8    6    7    4
 0.000190084403505291    8    6    7    5
 0.02443394746284147    8    6    7    7
 -0.0003788223747328435    8    7    3    3
 0.001073416721981931    8    7    4    3
 0.02065300063565351    4    3    8    7
 -0.002981450585799444    8    7    4    4
 -0.008149747174464728    8    7    5    3
 0.01981458863692896    8    7    5    4
 0.02065300063565351    5    4    8    7
 0.00336027296053229    8    7    5    5
 -0.007533461634106867    6    4    8    7
 5.177302225370096e-05    8    7    7    3
 -0.007533461634106845    7    3    8    7
 -0.000167330965543308    8    7    7    4
 0.002238247484753546    8    7    7    5
 -0.007533461634106828    7    5    8    7
 0.01727740994213104    7    6    8    7
 -0.001202469429934059    8    7    8    3
 0.002928149446693524    8    7    8    4
 -0.007533461634106859    8    4    8    7
 0.0002467222925468914    8    7    8    5
 0.01727740994213103    8    7    8    7
 0.8003798706315539    8    8    1    1
 1.013941050189662    1    1    8    8
 -0.01301713544767662    8    8    2    1
 -0.02154235490435371    2    1    8    8
 0.5270966097449569    8    8    2    2
 0.633503819470038    2    2    8    8
 0.4650190389896088    8    8    3    3
 0.6031333527249276    3    3    8    8
 -0.01514992019584064    8    8    4    3
 0.4956893696300295    8    8    4    4
 0.6615488599302106    4    4    8    8
 -0.001276513754050689    8    8    5    3
 0.003108455774069208    8    8    5    4
 0.4590595103233772    8    8    5    5
 0.6031333527249274    5    5    8    8
 -0.01214950902836973    8    8    6    1
 0.1013771981272136    8    8    6    2
 -0.1650039066539672    6    3    8    8