 &FCI NORB=   9,NELEC= 7,MS2=3,
  ORBSYM=1,1,1,1,1,1,1,1,1
  ISYM=1, UHF=TRUE
 &END
 4.118000736791725    1    1    1    1
 -0.4209229204939736    2    1    1    1
 0.06888654263025924    2    1    2    1
 0.9908280669211808    2    2    1    1
 -0.01904002882108885    2    2    2    1
 0.6990903324446512    2    2    2    2
 0.02877068412215453    3    1    3    1
 0.03189972085796206    3    2    3    1
 0.139108955700092    3    2    3    2
 0.950429750772034    3    3    1    1
 -0.0123696897615697    3    3    2    1
 0.6778193208990616    3    3    2    2
 0.7085025264743406    3    3    3    3
 0.02877068412215454    4    1    4    1
 0.03189972085796207    4    2    4    1
 0.1391089557000921    4    2    4    2
 0.03579916399559382    4    3    4    3
 0.9504297507720343    4    4    1    1
 -0.01236968976156976    4    4    2    1
 0.6778193208990617    4    4    2    2
 0.6369041984831531    4    4    3    3
 0.7085025264743408    4    4    4    4
 0.02877068412215456    5    1    5    1
 0.03189972085796208    5    2    5    1
 0.1391089557000922    5    2    5    2
 0.03579916399559385    5    3    5    3
 0.03579916399559383    5    4    5    4
 0.9504297507720346    5    5    1    1
 -0.01236968976156972    5    5    2    1
 0.677819320899062    5    5    2    2
 0.6369041984831534    5    5    3    3
 0.6369041984831534    5    5    4    4
 0.7085025264743416    5    5    5    5
 0.005334413392111154    6    1    3    1
 0.005353144912519308    6    1    3    2
 -0.02317079518848279    6    1    4    1
 -0.02325215825336788    6    1    4    2
 -0.02174731561727902    6    1    5    1
 -0.02182368020629082    6    1    5    2
 0.03624158428345594    6    1    6    1
 0.002983257829601622    6    2    3    1
 0.006623525519531856    6    2    3    2
 -0.01295821135016686    6    2    4    1
 -0.02877023994160742    6    2    4    2
 -0.01216213383162438    6    2    5    1
 -0.02700276288773977    6    2    5    2
 0.01879270770224538    6    2    6    1
 0.03464944811900301    6    2    6    2
 0.07075900388586798    6    3    1    1
 -0.002257020696881803    6    3    2    1
 0.0291913947658681    6    3    2    2
 0.03056093128354057    6    3    3    3
 -0.007620984426614995    6    3    4    3
 0.02705190355654979    6    3    4    4
 -0.007152795244694247    6    3    5    3
 0.0270519035565498    6    3    5    5
 0.01729984786653131    6    3    6    3
 -0.3073519553631067    6    4    1    1
 0.009803695450554107    6    4    2    1
 -0.1267970402118368    6    4    2    2
 -0.1175038510690555    6    4    3    3
 0.0017545138634954    6    4    4    3
 -0.1327458199222855    6    4    4    4
 -0.007152795244694264    6    4    5    4
 -0.1175038510690556    6    4    5    5
 -0.01370287400710092    6    4    6    3
 0.07366556553591183    6    4    6    4
 -0.2884700298154504    6    5    1    1
 0.009201413134274175    6    5    2    1
 -0.1190073638126265    6    5    2    2
 -0.1102850944327828    6    5    3    3
 -0.1102850944327828    6    5    4    4
 0.001754513863495399    6    5    5    3
 -0.007620984426614995    6    5    5    4
 -0.1245906849221713    6    5    5    5
 -0.01286104872414373    6    5    6    3
 0.05586382306570643    6    5    6    4
 0.0665770257922761    6    5    6    5
 0.8001281608446934    6    6    1    1
 -0.01518684323813736    6    6    2    1
 0.5407124459481586    6    6    2    2
 0.5188983903722693    6    6    3    3
 -0.005565417123553687    6    6    4    3
 0.5417913054013357    6    6    4    4
 -0.005223510101538956    6    6    5    3
 0.02268907072457509    6    6    5    4
 0.5389122976508613    6    6    5    5
 0.01995154830083061    6    6    6    3
 -0.08666243228455719    6    6    6    4
 -0.08133839394472407    6    6    6    5
 0.4907369043383944    6    6    6    6
 -0.0125403129204819    7    1    3    1
 -0.01258434758936264    7    1    3    2
 0.018727018572397    7    1    4    1
 0.01879277754246322    7    1    4    2
 -0.02302882497453119    7    1    5    1
 -0.02310968951825481    7    1    5    2
 0.03624158428345591    7    1    7    1
 -0.007013139769221403    7    2    3    1
 -0.01557079973864838    7    2    3    2
 0.0104730399904549    7    2    4    1
 0.02325258211192528    7    2    4    2
 -0.01287881485026911    7    2    5    1
 -0.02859396126464686    7    2    5    2
 0.01879270770224535    7    2    7    1
 0.03464944811900297    7    2    7    2
 -0.1663425732963682    7    3    1    1
 0.005305877840056259    7    3    2    1
 -0.06862408254498374    7    3    2    2
 -0.07184363364183692    7    3    3    3
 0.006159405222661771    7    3    4    3
 -0.063594496856115    7    3    4    4
 -0.007574289749942591    7    3    5    3
 -0.06359449685611503    7    3    5    5
 -0.0074161601516549    7    3    6    3
 0.02961554363677378    7    3    6    4
 0.02484519783794197    7    3    6    5
 -0.04422135824836278    7    3    6    6
 0.03157930381611877    7    3    7    3
 0.2484069160996417    7    4    1    1
 -0.007923508247654245    7    4    2    1
 0.1024794577681266    7    4    2    2
 0.09496854913257972    7    4    3    3
 -0.004124568392860971    7    4    4    3
 0.1072873595779033    7    4    4    4
 -0.007574289749942583    7    4    5    4
 0.09496854913257978    7    4    5    5
 0.01367250795833712    7    4    6    3
 -0.04810537863557608    7    4    6    4
 -0.03233223627675295    7    4    6    5
 0.06603776177396123    7    4    6    6
 -0.02603520925118016    7    4    7    3
 0.05302471262810764    7    4    7    4
 -0.3054687734305746    7    5    1    1
 0.009743627044212859    7    5    2    1
 -0.1260201396876693    7    5    2    2
 -0.1167838910184524    7    5    3    3
 -0.1167838910184524    7    5    4    4
 -0.004124568392860952    7    5    5    3
 0.006159405222661749    7    5    5    4
 -0.1319324705183376    7    5    5    5
 -0.008229940058089255    7    5    6    3
 0.04633789788343048    7    5    6    4
 0.05552153878723094    7    5    6    5
 -0.0812073770164306    7    5    6    6
 0.03201578909653325    7    5    7    3
 -0.04781063126753968    7    5    7    4
 0.0729384227504926    7    5    7    5
 -0.003012070655955067    7    6    3    3
 0.008790712936127848    7    6    4    3
 -0.01953798143767002    7    6    4    4
 0.003374140348671801    7    6    5    3
 0.002844197096613013    7    6    5    4
 0.02255005209362471    7    6    5    5
 -0.001340695989578275    7    6    6    3
 0.002002122184348656    7    6    6    4
 -0.002462032126616735    7    6    6    5
 0.0005703068724764681    7    6    7    3
 -0.002477210288253708    7    6    7    4
 -0.002325024823308622    7    6    7    5
 0.02274618496305385    7    6    7    6
 0.8001281608446927    7    7    1    1
 -0.01518684323813736    7    7    2    1
 0.5407124459481581    7    7    2    2
 0.5246979860348782    7    7    3    3
 -0.01057419044404367    7    7    4    3
 0.5334080307570294    7    7    4    4
 0.01300320069859755    7    7    5    3
 -0.01941826990501316    7    7    5    4
 0.5414959766325573    7    7    5    5
 0.01881093455587766    7    7    6    3
 -0.08170801170804966    7    7    6    4
 -0.07668834429810656    7    7    6    5
 0.4452445344122861    7    7    6    6
 -0.04690275022751929    7    7    7    3
 0.07004200614265847    7    7    7    4
 -0.0861314412696641    7    7    7    5
 0.4907369043383935    7    7    7    7
 -0.02919883624531222    8    1    3    1
 -0.0293013664687539    8    1    3    2
 -0.01227601230793535    8    1    4    1
 -0.01231911889870256    8    1    4    2
 0.005917341987494035    8    1    5    1
 0.005938120431917687    8    1    5    2
 0.03624158428345593    8    1    8    1
 -0.01632937877909936    8    2    3    1
 -0.03625501489957028    8    2    3    2
 -0.006865330288817424    8    2    4    1
 -0.01524262834971577    8    2    4    2
 0.003309259241274445    8    2    5    1
 0.007347324397454082    8    2    5    2
 0.01879270770224536    8    2    8    1
 0.03464944811900299    8    2    8    2
 -0.3873116714951849    8    3    1    1
 0.01235419396404346    8    3    2    1
 -0.1597841586108341    8    3    2    2
 -0.1672805541040352    8    3    3    3
 -0.004037638667930179    8    3    4    3
 -0.148073282666807    8    3    4    4
 0.00194624184309662    8    3    5    3
 -0.1480732826668071    8    3    5    5
 -0.01726777052616483    8    3    6    3
 0.06489576668920051    8    3    6    4
 0.06217631492181373    8    3    6    5
 -0.1029649105430471    8    3    6    6
 0.04059363793541351    8    3    7    3
 -0.05107359551125021    8    3    7    4
 0.06437387913087794    8    3    7    5
 -0.1029649105430469    8    3    7    7
 0.108663287512069    8    3    8    3
 -0.1628367242562705    8    4    1    1
 0.005194050745141146    8    4    2    1
 -0.06717775603247231    8    4    2    2
 -0.06225417428360509    8    4    3    3
 -0.0096036357186141    8    4    4    3
 -0.07032945161946554    8    4    4    4
 0.001946241843096616    8    4    5    4
 -0.06225417428360516    8    4    5    5
 0.002849432545023321    8    4    6    3
 0.0315342358381949    8    4    6    4
 0.02409195627920305    8    4    6    5
 -0.04328934545515797    8    4    6    6
 0.00751998071423603    8    4    7    3
 -0.02548648915172993    8    4    7    4
 0.02899929890830211    8    4    7    5
 -0.04328934545515794    8    4    7    7
 0.03973808325828108    8    4    8    3
 0.03085216103069971    8    4    8    4
 0.07849133426860132    8    5    1    1
 -0.002503661106590037    8    5    2    1
 0.03238134228161549    8    5    2    2
 0.0300080539302672    8    5    3    3
 0.0300080539302672    8    5    4    4
 -0.009603635718614128    8    5    5    3
 -0.0040376386679302    8    5    5    4
 0.03390053761646045    8    5    5    5
 0.01172029499234666    8    5    6    3
 -0.009695284129167019    8    5    6    4
 -0.01426646531203004    8    5    6    5
 0.02086653670975525    8    5    6    6
 0.001945036050916987    8    5    7    3
 0.01462684194811629    8    5    7    4
 -0.01510714878368362    8    5    7    5
 0.02086653670975523    8    5    7    7
 -0.01915474037238956    8    5    8    3
 -0.008053191798166682    8    5    8    4
 0.0180269906519504    8    5    8    5
 -0.00701329850381106    8    6    3    3
 0.01375734359307847    8    6    4    3
 0.01280761802386298    8    6    4    4
 0.01500654015995886    8    6    5    3
 0.002923601489164901    8    6    5    4
 -0.005794319520051839    8    6    5    5
 -0.003121673510276191    8    6    6    3
 -0.001312439376403543    8    6    6    4
 0.0006326282862239224    8    6    6    5
 0.0005703068724764314    8    6    8    3
 -0.002477210288253685    8    6    8    4
 -0.002325024823308655    8    6    8    5
 0.02274618496305386    8    6    8    6
 0.01648709077789183    8    7    3    3
 -0.008844642133407637    8    7    4    3
 -0.01035132798205678    8    7    4    4
 0.01346770122738476    8    7    5    3
 0.008859370349280559    8    7    5    4
 -0.006135762795835106    8    7    5    5
 -0.00312167351027618    8    7    7    3
 -0.001312439376403534    8    7    7    4
 0.0006326282862239449    8    7    7    5
 -0.001340695989578253    8    7    8    3
 0.00200212218434862    8    7    8    4
 -0.002462032126616772    8    7    8    5
 0.02274618496305385    8    7    8    7
 0.8001281608446933    8    8    1    1
 -0.0151868432381374    8    8    2    1
 0.5407124459481586    8    8    2    2
 0.5560056170173177    8    8    3    3
 0.01613960756759726    8    8    4    3
 0.5244026572661005    8    8    4    4
 -0.007779690597058552    8    8    5    3
 -0.003270800819561824    8    8    5    4
 0.5191937191410479    8    8    5    5
 0.01881093455587768    8    8    6    3
 -0.08170801170804975    8    8    6    4
 -0.07668834429810668    8    8    6    5
 0.4452445344122865    8    8    6    6
 -0.04422135824836282    8    8    7    3
 0.06603776177396134    8    8    7    4
 -0.08120737701643065    8    8    7    5
 0.4452445344122862    8    8    7    7
 -0.1092082575635994    8    8    8    3
 -0.045914224207965    8    8    8    4
 0.02213179328220311    8    8    8    5
 0.490736904338394    8    8    8    8
 -0.3423798300065302    9    1    1    1
 0.05628369020925479    9    1    2    1
 -0.0145221708247888    9    1    2    2
 -0.009185286135383263    9    1    3    3
 -0.009185286135383266    9    1    4    4
 -0.009185286135383268    9    1    5    5
 -0.001687010305007598    9    1    6    3
 0.007327772968626431    9    1    6    4
 0.00687759700192315    9    1    6    5
 -0.01162630734083171    9    1    6    6
 0.003965878826743929    9    1    7    3
 -0.005922426889603931    9    1    7    4
 0.007282874833379793    9    1    7    5
 -0.0116263073408317    9    1    7    7
 0.009234143291728726    9    1    8    3
 0.003882293655477445    9    1    8    4
 -0.001871361699473735    9    1    8    5
 -0.01162630734083171    9    1    8    8
 0.0461902032913878    9    1    9    1
 0.3769348488686095    9    2    1    1
 -0.01583802089030672    9    2    2    1
 0.1524045159443043    9    2    2    2
 0.144901803993783    9    2    3    3
 0.144901803993783    9    2    4    4
 0.1449018039937831    9    2    5    5
 0.01598202996749814    9    2    6    3
 -0.06942025595930368    9    2    6    4
 -0.06515547715555658    9    2    6    5
 0.09664014317790184    9    2    6    6
 -0.03757107711099746    9    2    7    3
 0.0561065950510246    9    2    7    4
 -0.0689949098064873    9    2    7    5
 0.09664014317790175    9    2    7    7
 -0.08748041098179046    9    2    8    3
 -0.03677922616138907    9    2    8    4
 0.01772849796604103    9    2    8    5
 0.0966401431779018    9    2    8    8
 -0.01196115361705734    9    2    9    1
 0.0870699480835406    9    2    9    2
 0.01606638735835486    9    3    3    1
 0.02580943439069934    9    3    3    2
 0.002795058697046882    9    3    6    1
 0.005784978552363055    9    3    6    2
 -0.006570715112540334    9    3    7    1
 -0.01359951618901406    9    3    7    2
 -0.01529923820898489    9    3    8    1
 -0.03166508274047399    9    3    8    2
 0.03760139381770355    9    3    9    3
 0.01606638735835486    9    4    4    1
 0.02580943439069935    9    4    4    2
 -0.01214074123029859    9    4    6    1
 -0.02512789005156594    9    4    6    2
 0.009812347166034191    9    4    7    1
 0.02030877489757993    9    4    7    2
 -0.00643223020868464    9    4    8    1
 -0.01331289172582205    9    4    8    2
 0.03760139381770358    9    4    9    4
 0.01606638735835487    9    5    5    1
 0.02580943439069937    9    5    5    2
 -0.01139488434536995    9    5    6    1
 -0.02358417789732629    9    5    6    2
 -0.01206635346691043    9    5    7    1
 -0.02497392848495789    9    5    7    2
 0.003100494275529003    9    5    8    1
 0.006417143548581036    9    5    8    2
 0.0376013938177036    9    5    9    5
 0.003564329605083215    9    6    3    1
 0.0154058773239622    9    6    3    2
 -0.01548218054974244    9    6    4    1
 -0.06691765371996151    9    6    4    2
 -0.01453104496932865    9    6    5    1
 -0.06280662031569577    9    6    5    2
 0.02204154958057366    9    6    6    1
 0.01466412168998442    9    6    6    2
 0.0003990313033706365    9    6    9    3
 -0.001733250111037078    9    6    9    4
 -0.001626769254218025    9    6    9    5
 0.08117758782695692    9    6    9    6
 -0.008379142243753161    9    7    3    1
 -0.03621663869222243    9    7    3    2
 0.01251295349761429    9    7    4    1
 0.05408395067329614    9    7    4    2
 -0.01538731939080488    9    7    5    1
 -0.06650764130828202    9    7    5    2
 0.02204154958057363    9    7    7    1
 0.01466412168998438    9    7    7    2
 -0.0009380557976132152    9    7    9    3
 0.001400841307169901    9    7    9    4
 -0.00172263028176086    9    7    9    5
 0.08117758782695687    9    7    9    7
 -0.01950997585171302    9    8    3    1
 -0.08432673963044972    9    8    3    2
 -0.008202542788725091    9    8    4    1
 -0.03545333399229764    9    8    4    2
 0.003953828786613741    9    8    5    1
 0.0170893851005397    9    8    5    2
 0.02204154958057365    9    8    8    1
 0.01466412168998437    9    8    8    2
 -0.002184166997837689    9    8    9    3
 -0.000918285260507478    9    8    9    4
 0.0004426362398631135    9    8    9    5
 0.08117758782695697    9    8    9    8
 0.7399481398738288    9    9    1    1
 -0.01337643406253982    9    9    2    1
 0.5420969263294365    9    9    2    2
 0.531695882783271    9    9    3    3
 0.5316958827832711    9    9    4    4
 0.5316958827832715    9    9    5    5
 0.01687987655834509    9    9    6    3
 -0.07332018233133147    9    9    6    4
 -0.06881581461945124    9    9    6    5
 0.4556647043566798    9    9    6    6
 -0.03968176414932465    9    9    7    3
 0.05925857982348695    9    9    7    4
 -0.0728709408664668    9    9    7    5
 0.4556647043566796    9    9    7    7
 -0.09239492990871152    9    9    8    3
 -0.03884542819518246    9    9    8    4
 0.01872445852249209    9    9    8    5
 0.4556647043566799    9    9    8    8
 -0.01023346252013348    9    9    9    1
 0.08578206135702615    9    9    9    2
 0.4580848937875495    9    9    9    9
 0  0  0  0  0
 4.125226790223329    1    1    1    1
 -0.4221109766578524    2    1    1    1
 0.06246939108976612    2    1    2    1
 0.9911457104430231    2    2    1    1
 -0.01661740571231021    2    2    2    1
 0.677565683309901    2    2    2    2
 -0.004060641515951057    3    1    3    1
 -0.004554708518783044    3    2    3    1
 -0.02566398855872122    3    2    3    2
 0.9506319032583618    3    3    1    1
 -0.01042183647994904    3    3    2    1
 0.6574352943546478    3    3    2    2
 0.5539294173127411    3    3    3    3
 -0.01484168984818358    4    1    3    1
 -0.01943859104172441    4    1    3    2
 -0.004340266800307089    4    1    4    1
 -0.01664751023184691    4    2    3    1
 -0.09380216326893913    4    2    3    2
 -0.004868356414003672    4    2    4    1
 -0.02743127091306174    4    2    4    2
 0.009289062413333203    4    3    3    3
 -0.02060724120826794    4    3    4    3
 0.9506319032583621    4    4    1    1
 -0.01042183647994907    4    4    2    1
 0.6574352943546479    4    4    2    2
 0.5853395842000084    4    4    3    3
 0.009928729005059086    4    4    4    3
 0.554291490664565    4    4    4    4
 0.01233205623686321    5    1    3    1
 0.01615165121654048    5    1    3    2
 0.001099895251202346    5    1    4    1
 0.00144056466585399    5    1    4    2
 0.01534779454863542    5    1    5    1
 0.01383252409145428    5    2    3    1
 0.07794082509503157    5    2    3    2
 0.001233721876393465    5    2    4    1
 0.006951536852431934    5    2    4    2
 0.01721519378172172    5    2    5    1
 0.09700083648126012    5    2    5    2
 -0.007718342132245666    5    3    3    3
 0.0179070573783899    5    3    4    3
 0.003255656649122277    5    3    4    4
 -0.003010011769992197    5    3    5    3
 -0.02821062623207908    5    4    3    3
 -0.005382974534296679    5    4    4    3
 -0.0007358031325843655    5    4    4    4
 -0.005925366474559729    5    4    5    3
 -0.004096431622775677    5    4    5    4
 0.9506319032583624    5    5    1    1
 -0.01042183647994903    5    5    2    1
 0.6574352943546482    5    5    2    2
 0.5748283499723029    5    5    3    3
 0.002090646964294526    5    5    4    3
 0.5515744225518733    5    5    4    4
 0.02917261443455411    5    5    5    3
 0.002601903483525187    5    5    5    4
 0.5876945789608765    5    5    5    5
 0.001876941283217009    6    1    3    1
 0.002213728787640825    6    1    3    2
 0.006219835844301502    6    1    4    1
 0.007335887268317145    6    1    4    2
 -0.02108949744787782    6    1    5    1
 -0.02487367507694537    6    1    5    2
 0.001066400561489611    6    2    3    1
 0.002396038644610232    6    2    3    2
 0.003533853986826836    6    2    4    1
 0.007940028374534412    6    2    4    2
 -0.01198218192601302    6    2    5    1
 -0.02692212661757567    6    2    5    2
 0.07079608898531205    6    3    1    1
 -0.001922661422955651    6    3    2    1
 0.02695058087587904    6    3    2    2
 0.01842780484221757    6    3    3    3
 8.402407057074866e-05    6    3    4    3
 0.02040710755301693    6    3    4    4
 0.0006945495342400951    6    3    5    3
 -0.003062938251701438    6    3    5    4
 0.01792679875978835    6    3    5    5
 -0.001766399287444561    6    3    6    1
 0.01664928891906507    6    3    6    2
 -0.3075130398499283    6    4    1    1
 0.008351357642057678    6    4    2    1
 -0.1170637413682885    6    4    2    2
 -0.08099342896696006    6    4    3    3
 -0.0007824145786992061    6    4    4    3
 -0.08098001375220823    6    4    4    4
 0.002616666648364594    6    4    5    3
 0.001305664036198584    6    4    5    4
 -0.0845792495910809    6    4    5    5
 0.007672610482529893    6    4    6    1
 -0.07231859160897482    6    4    6    2
 -0.2886212182035683    6    5    1    1
 0.007838298556317074    6    5    2    1
 -0.1098720225251961    6    5    2    2
 -0.07524984994599235    6    5    3    3
 0.0006134730988644761    6    5    4    3
 -0.0755038346950275    6    5    4    4
 -0.001801216880869378    6    5    5    3
 0.0005628231263482451    6    5    5    4
 -0.08065223700926533    6    5    5    5
 0.007201249694484339    6    5    6    1
 -0.06787575583505306    6    5    6    2
 0.8003798706315487    6    6    1    1
 -0.01301713544767635    6    6    2    1
 0.5270966097449534    6    6    2    2
 0.4591113822984441    6    6    3    3
 0.001039830879286863    6    6    4    3
 0.4622434026202502    6    6    4    4
 -0.003525737852879011    6    6    5    3
 -0.01168364235526919    6    6    5    4
 0.4984131340243241    6    6    5    5
 -0.01214950902836972    6    6    6    1
 0.1013771981272128    6    6    6    2
 0.4690288307730285    6    6    6    6
 -0.01774753548134313    7    1    3    1
 -0.02093205075514541    7    1    3    2
 -0.01206647433464691    7    1    4    1
 -0.01423161280471905    7    1    4    2
 -0.005138224458363123    7    1    5    1
 -0.00606019778164978    7    1    5    2
 -0.01027090159703872    7    1    6    3
 -0.006983142568985724    7    1    6    4
 -0.002973607115806216    7    1    6    5
 -0.004284307752409436    7    1    7    1
 -0.01008341708480224    7    2    3    1
 -0.02265589298936643    7    2    3    2
 -0.006855672641827465    7    2    4    1
 -0.01540364585111439    7    2    4    2
 -0.002919327043660396    7    2    5    1
 -0.006559280504405574    7    2    5    2
 -0.02594192427530851    7    2    6    3
 -0.01763780462861619    7    2    6    4
 -0.007510644503205492    7    2    6    5
 -0.002232118888069723    7    2    7    1
 -0.004195898862304508    7    2    7    2
 -0.1664297541572298    7    3    1    1
 0.004519855157768479    7    3    2    1
 -0.06335630419496277    7    3    2    2
 -0.04247721433998391    7    3    3    3
 -0.002272860659532084    7    3    4    3
 -0.04720930337824879    7    3    4    4
 -9.825974675597469e-05    7    3    5    3
 -0.0009458063306751738    7    3    5    4
 -0.04375076347160874    7    3    5    5
 0.004152509034982088    7    3    6    1
 -0.03913969120903801    7    3    6    2
 -0.04486236163848391    7    3    6    6
 0.002126415882847351    7    3    7    3
 0.2485371072368856    7    4    1    1
 -0.006749704893394493    7    4    2    1
 0.09461284521853137    7    4    2    2
 0.0692124905207494    7    4    3    3
 0.001994726420490328    7    4    4    3
 0.06592530302661082    7    4    4    4
 -0.001097434424224971    7    4    5    3
 -0.0009762683216503877    7    4    5    4
 0.06413015605945856    7    4    5    5
 -0.006201130251952901    7    4    6    1
 0.05844907769345935    7    4    6    2
 0.06699500123583793    7    4    6    6
 -0.007387867550210925    7    4    7    3
 -0.01713417322538614    7    4    7    4
 -0.3056288709336146    7    5    1    1
 0.008300187881952997    7    5    2    1
 -0.1163464779220907    7    5    2    2
 -0.083475093267794    7    5    3    3
 -0.001310976999820502    7    5    4    3
 -0.08027264252351221    7    5    4    4
 -0.002614949612520046    7    5    5    3
 -0.001486374351435282    7    5    5    4
 -0.08129429889183484    7    5    5    5
 0.007625599486881621    7    5    6    1
 -0.07187548700941801    7    5    6    2
 -0.08238450512900528    7    5    6    6
 -0.008180018665770129    7    5    7    3
 0.00934698515544103    7    5    7    4
 -0.07377600983476482    7    5    7    5
 -0.002967029337542778    7    6    3    3
 -0.005924728248777406    7    6    4    3
 -0.00668486155080182    7    6    4    4
 0.01623941353532911    7    6    5    3
 0.009909830741264359    7    6    5    4
 0.009651890888344285    7    6    5    5
 0.002513203141391251    7    6    7    3
 0.001637575293885103    7    6    7    4
 0.001038918016299103    7    6    7    5
 0.800379870631548    7    7    1    1
 -0.01301713544767635    7    7    2    1
 0.527096609744953    7    7    2    2
 0.4868525267735938    7    7    3    3
 0.0190744290573866    7    7    4    3
 0.4717662193068243    7    7    4    4
 0.008122397246605885    7    7    5    3
 0.005522383545310092    7    7    5    4
 0.4611491728625993    7    7    5    5
 -0.01214950902836976    7    7    6    1
 0.1013771981272129    7    7    6    2
 0.4690288307730275    7    7    6    6
 -0.001292140900056916    7    7    7    3
 -0.02431706234509341    7    7    7    4
 0.1145889429966191    7    7    7    5
 0.5045528901138466    7    7    7    7
 0.01297991698249916    8    1    3    1
 0.01530895832612158    8    1    3    2
 -0.01739798862845925    8    1    4    1
 -0.02051978323363187    8    1    4    2
 -0.003975916991862517    8    1    5    1
 -0.004689332575748308    8    1    5    2
 0.007511772561611547    8    1    6    3
 -0.01006861089964589    8    1    6    4
 -0.002300953404169425    8    1    6    5
 -0.0008173544425293728    8    1    7    1
 -0.0004708264161730641    8    1    7    2
 -0.0005225895409392537    8    1    7    6
 -0.01323682560670472    8    1    8    1
 0.007374653049615516    8    2    3    1
 0.01656971529796348    8    2    3    2
 -0.009884818991449306    8    2    4    1
 -0.02220967350711594    8    2    4    2
 -0.002258951918459157    8    2    5    1
 -0.005075518795098855    8    2    5    2
 0.01897300184658094    8    2    6    3
 -0.02543098471427939    8    2    6    4
 -0.005811676648638766    8    2    6    5
 -0.0004258406246356776    8    2    7    1
 -0.0008004879139645847    8    2    7    2
 -0.0004924358079921553    8    2    7    6
 -0.006896369299846442    8    2    8    1
 -0.0129636769143067    8    2    8    2
 -0.3875146632144635    8    3    1    1
 0.01052402052812093    8    3    2    1
 -0.1475186754132304    8    3    2    2
 -0.1023386158553476    8    3    3    3
 0.002491612080854025    8    3    4    3
 -0.106721998070843    8    3    4    4
 0.0003164522588584437    8    3    5    3
 -0.0008502963597112882    8    3    5    4
 -0.1016344498403798    8    3    5    5
 0.009668692646543794    8    3    6    1
 -0.09113276850039495    8    3    6    2
 -0.1044574213870359    8    3    6    6
 0.0005570350769607772    8    3    7    3
 0.02014080250075359    8    3    7    4
 -0.08881282521736246    8    3    7    5
 -0.1494764747839292    8    3    7    7
 -0.04709725845376635    8    3    8    3
 -0.1629220676865133    8    4    1    1
 0.004424594338170529    8    4    2    1
 -0.06202100178954486    8    4    2    2
 -0.04568162731831403    8    4    3    3
 0.001572311039679277    8    4    4    3
 -0.04150463190358885    8    4    4    4
 0.001696598495165768    8    4    5    3
 -0.001523662395993766    8    4    5    4
 -0.04343868742902807    8    4    5    5
 0.004064990430900181    8    4    6    1
 -0.03831478002643623    8    4    6    2
 -0.04391683900786682    8    4    6    6
 0.006315899613649463    8    4    7    3
 0.0007264513241802514    8    4    7    4
 -0.03930377508571048    8    4    7    5
 -0.06313282396927379    8    4    7    7
 -0.02340889624669273    8    4    8    3
 -0.02365117821415841    8    4    8    4
 0.0785324719157839    8    5    1    1
 -0.00213276406035864    8    5    2    1
 0.02989565901286072    8    5    2    2
 0.02306658799065954    8    5    3    3
 -0.001559827652515509    8    5    4    3
 0.02027515646753916    8    5    4    4
 0.001169672512234425    8    5    5    3
 -0.002113716716265602    8    5    5    4
 0.01962271517598373    8    5    5    5
 -0.001959426070302846    8    5    6    1
 0.01846867296194168    8    5    6    2
 0.02116900414406417    8    5    6    6
 0.005692511859583326    8    5    7    3
 -0.01214228855627935    8    5    7    4
 0.01595695912506102    8    5    7    5
 0.03000074482289362    8    5    7    7
 0.01269501835804771    8    5    8    3
 0.008191528097580185    8    5    8    4
 -0.001489654231404303    8    5    8    5
 0.002169979855875129    8    6    3    3
 0.002141159621666931    8    6    4    3
 -0.009638535832270988    8    6    4    4
 -0.01252340037470237    8    6    5    3
 0.01523927954518833    8    6    5    4
 0.007468555976395913    8    6    5    5
 -0.001862974143293456    8    6    7    3
 0.002473106308804275    8    6    7    4
 0.0006269725919897728    8    6    7    5
 0.0009276018448657692    8    6    7    7
 0.0001051801427423037    8    6    8    3
 -0.0005293678580203135    8    6    8    4
 0.0008798594521847591    8    6    8    5
 -0.02051837999957869    8    7    3    3
 0.006776007503457356    8    7    4    3
 0.01869874835205294    8    7    4    4
 0.0001723066125353478    8    7    5    3
 0.006117799335008951    8    7    5    4
 0.001819631647525711    8    7    5    5