 &FCI NORB=   9,NELEC= 7,MS2=3,
  ORBSYM=1,1,1,1,1,1,1,1,1
  ISYM=1, UHF=TRUE
 &END
 4.118000736791725    1    1    1    1
 4.13247334117247   10   10   10   10
 4.125226790223331    1    1   10   10
 4.125226790223332   10   10    1    1
 -0.4209229204939736    2    1    1    1
 -0.3794820050069865   11   10   10   10
 -0.4221109766578525    2    1   10   10
 -0.3784045867415137   11   10    1    1
 0.06888654263025916    2    1    2    1
 0.05666599100935402   11   10   11   10
 0.06246939108976648    2    1   11   10
 0.06246939108976653   11   10    2    1
 0.990828066921179    2    2    1    1
 0.934232859778399   11   11   10   10
 0.9911457104430218    2    2   10   10
 0.9339648140393519   11   11    1    1
 -0.01904002882108883    2    2    2    1
 -0.01401248048370355   11   11   11   10
 -0.0166174057123103    2    2   11   10
 -0.01608770474454663   11   11    2    1
 0.6990903324446496    2    2    2    2
 0.6577721481355276   11   11   11   11
 0.6775656833099029    2    2   11   11
 0.6775656833099029   11   11    2    2
 0.02877068412215424    3    1    3    1
 0.01351792925657742   12   10   12   10
 0.01833571823099028    3    1   12   10
 0.01833571823099027   12   10    3    1
 0.03189972085796181    3    2    3    1
 0.01789260959207023   12   11   12   10
 0.02056666457667764    3    2   12   10
 0.02401482120933392   12   11    3    1
 0.1391089557000916    3    2    3    2
 0.1142061286433494   12   11   12   11
 0.1158850543805924    3    2   12   11
 0.1158850543805924   12   11    3    2
 0.9504297507720305    3    3    1    1
 0.7367147860172447   12   12   10   10
 0.9506319032583588    3    3   10   10
 0.7366168614270656   12   12    1    1
 -0.01236968976156965    3    3    2    1
 -0.005019773087046733   12   12   11   10
 -0.01042183647994902    3    3   11   10
 -0.006014178095353454   12   12    2    1
 0.6778193208990597    3    3    2    2
 0.5715375788467911   12   12   11   11
 0.6574352943546493    3    3   11   11
 0.5850279473771809   12   12    2    2
 0.708502526474338    3    3    3    3
 0.547776775681091   12   12   12   12
 0.6032070418655335    3    3   12   12
 0.6032070418655336   12   12    3    3
 0.007247018897577512    4    1   12   10
 -0.007076247379403288   13   10    3    1
 0.009491630539557479    4    1   12   11
 -0.007937229645458043   13   10    3    2
 0.02877068412215424    4    1    4    1
 0.01351792925657743   13   10   13   10
 0.01764716157061726    4    1   13   10
 0.01764716157061725   13   10    4    1
 0.008128779302215049    4    2   12   10
 -0.00926796613629079   13   11    3    1
 0.04580246971855839    4    2   12   11
 -0.04472316284762116   13   11    3    2
 0.03189972085796182    4    2    4    1
 0.01789260959207022   13   11   13   10
 0.01979432974378332    4    2   13   10
 0.02311299860914766   13   11    4    1
 0.1391089557000916    4    2    4    2
 0.1142061286433494   13   11   13   11
 0.1115332517936295    4    2   13   11
 0.1115332517936295   13   11    4    2
 0.02048100194812403    4    3   12   12
 -0.01999837980433755   13   12    3    3
 0.03579916399559368    4    3    4    3
 0.02783879240909909   13   12   13   12
 0.02098448234368601    4    3   13   12
 0.02098448234368601   13   12    4    3
 0.9504297507720306    4    4    1    1
 0.7367147860172448   13   13   10   10
 0.9506319032583589    4    4   10   10
 0.7366168614270657   13   13    1    1
 -0.01236968976156966    4    4    2    1
 -0.005019773087046719   13   13   11   10
 -0.01042183647994903    4    4   11   10
 -0.006014178095353452   13   13    2    1
 0.6778193208990597    4    4    2    2
 0.5715375788467911   13   13   11   11
 0.6574352943546493    4    4   11   11
 0.5850279473771809   13   13    2    2
 0.6369041984831507    4    4    3    3
 0.4920991908628929   13   13   12   12
 0.5594828798522455    4    4   12   12
 0.5591058711422765   13   13    3    3
 0.01971188398258613    4    4   13   12
 -0.01924738562797234   13   13    4    3
 0.7085025264743381    4    4    4    4
 0.5477767756810912   13   13   13   13
 0.5993882192988567    4    4   13   13
 0.5993882192988568   13   13    4    4
 0.0003554323448516653    5    1   12   10
 0.001603851015244417   14   10    3    1
 0.0004655200361445595    5    1   12   11
 0.001798995024135158   14   10    3    2
 0.005229587902110386    5    1   13   10
 -0.004990248861386123   14   10    4    1
 0.006849342735612803    5    1   13   11
 -0.005597423192990074   14   10    4    2
 0.02877068412215424    5    1    5    1
 0.01351792925657744   14   10   14   10
 0.0190097147880292    5    1   14   10
 0.0190097147880292   14   10    5    1
 0.0003986785641105161    5    2   12   10
 0.002100610125672898   14   11    3    1
 0.002246396682849338    5    2   12   11
 0.01013662839810827   14   11    3    2
 0.005865883130510278    5    2   13   10
 -0.006535873462198028   14   11    4    1
 0.03305194106876388    5    2   13   11
 -0.03153927505806726   14   11    4    2
 0.03189972085796181    5    2    5    1
 0.01789260959207024   14   11   14   10
 0.02132266774709211    5    2   14   10
 0.02489757402049129   14   11    5    1
 0.1391089557000916    5    2    5    2
 0.1142061286433495   14   11   14   11
 0.1201448344819672    5    2   14   11
 0.1201448344819672   14   11    5    2
 0.00100449724917464    5    3   12   12
 0.004532688024133836   14   12    3    3
 0.007195910743538734    5    3   13   12
 -0.006155789650122076   14   12    4    3
 -0.005703800842107702    5    3   13   13
 -0.005574109252995105   14   12    4    4
 0.03579916399559368    5    3    5    3
 0.02783879240909911   14   12   14   12
 0.02690587459981045    5    3   14   12
 0.02690587459981045   14   12    5    3
 0.0003970180199993226    5    4   12   12
 -0.00174928635728163   14   13    3    3
 0.003404113318382184    5    4   13   12
 0.004902615967761443   14   13    4    3
 0.01422447374017404    5    4   13   13
 -0.0135734717944172   14   13    4    4
 0.01048023615740828    5    4   14   12
 -0.009720355683848105   14   13    5    3
 0.03579916399559368    5    4    5    4
 0.0278387924090991   14   13   14   13
 0.02384201028126852    5    4   14   13
 0.02384201028126852   14   13    5    4
 0.9504297507720305    5    5    1    1
 0.7367147860172454   14   14   10   10
 0.9506319032583588    5    5   10   10
 0.7366168614270663   14   14    1    1
 -0.01236968976156967    5    5    2    1
 -0.005019773087046783   14   14   11   10
 -0.01042183647994903    5    5   11   10
 -0.006014178095353501   14   14    2    1
 0.6778193208990595    5    5    2    2
 0.5715375788467916   14   14   11   11
 0.6574352943546492    5    5   11   11
 0.5850279473771813   14   14    2    2
 0.6369041984831506    5    5    3    3
 0.4920991908628932   14   14   12   12
 0.5514074297672606    5    5   12   12
 0.5517844384772304   14   14    3    3
 0.0002864958217511464    5    5   13   12
 -0.0012336163201517   14   14    4    3
 0.6369041984831507    5    5    4    4
 0.4920991908628932   14   14   13   13
 0.5556032610439069    5    5   13   13
 0.5552262523339383   14   14    4    4
 0.00104142122886109    5    5   14   12
 0.00469930359293306   14   14    5    3
 0.01532275815169858    5    5   14   13
 -0.01462149176017338   14   14    5    4
 0.7085025264743379    5    5    5    5
 0.5477767756810918   14   14   14   14
 0.6070866606738725    5    5   14   14
 0.6070866606738726   14   14    5    5
 -0.3624122252630161   15   10   10   10
 -0.3613838009347347   15   10    1    1
 0.05400566209770909   15   10   11   10
 0.05956139040791254   15   10    2    1
 -0.01294103482538434   15   10   11   11
 -0.01534896437683572   15   10    2    2
 -0.008110085780627883    6    1   12   10
 -0.009565312736923202    6    1   12   11
 -0.004665083905857699   15   10   12   12
 -0.00961919319688276   15   10    3    3
 -0.03222246813113638    6    1    4    1
 -0.01974880928903705    6    1   13   10
 -0.03233561568364746    6    1    4    2
 -0.02329242157742855    6    1   13   11
 -0.004665083905857699   15   10   13   13
 -0.00961919319688276   15   10    4    4
 0.005584550958746717    6    1   14   10
 0.006586610531702793    6    1   14   11
 -0.004665083905857704   15   10   14   14
 -0.00961919319688276   15   10    5    5
 0.0362415842834563    6    1    6    1
 0.05169632239961167   15   10   15   10
 0.3871330234890916   15   11   10   10
 0.3868756416999062   15   11    1    1
 -0.01351071854607617   15   11   11   10
 -0.01549131621917639   15   11    2    1
 0.1487129207475196   15   11   11   11
 0.1614587902034399   15   11    2    2
 -0.004607815975663915    6    2   12   10
 -0.01035305638766844    6    2   12   11
 0.1020242512730406   15   11   12   12
 0.1533469112180303   15   11    3    3
 -0.01802033762202629    6    2    4    1
 -0.01122045825455125    6    2   13   10
 -0.04000933641260588    6    2    4    2
 -0.02521065025564766    6    2   13   11
 0.1020242512730406   15   11   13   13
 0.1533469112180303   15   11    4    4
 0.003172911337890947    6    2   14   10
 0.007129045553848187    6    2   14   11
 0.1020242512730407   15   11   14   14
 0.1533469112180303   15   11    5    5
 0.01879270770224558    6    2    6    1
 -0.01232161019068604   15   11   15   10
 0.03464944811900333    6    2    6    2
 0.09447896844129661   15   11   15   11
 0.008426793717934396   15   12   12   10
 0.01123576151703948   15   12    3    1
 -0.0003190912432457652   15   12   12   11
 0.009807700118798689   15   12    3    2
 -0.002316328519137201    6    3   12   12
 0.004440828279365504   15   12    4    1
 0.003876400542771022   15   12    4    2
 -0.01059812258564813    6    3    4    3
 -0.002373270362217957    6    3   13   12
 0.002176810898306055    6    3   13   13
 0.0002178018342060748   15   12    5    1
 0.0001901192964961004   15   12    5    2
 0.0006961979282314074    6    3   14   12
 -0.0005544684392524766    6    3   14   13
 0.0001395176208311546    6    3   14   14
 -0.004693490715031214   15   12    6    1
 -0.01185467308452356   15   12    6    2
 0.01414515274194524    6    3    6    3
 0.03875992701770165   15   12   15   12
 -0.427419020632181    6    4    1    1
 -0.4276430327863093    6    4   10   10
 0.01363350984086493    6    4    2    1
 0.01161381615451356    6    4   11   10
 -0.1763303138331292    6    4    2    2
 -0.1627947010392743    6    4   11   11
 -0.004336182907532435   15   13    3    1
 -0.00378505556146269   15   13    3    2
 -0.1634067396288763    6    4    3    3
 -0.112945592711816    6    4   12   12
 0.008426793717934396   15   13   13   10
 0.01081382776296135   15   13    4    1
 -0.0003190912432457661   15   13   13   11
 0.009439393998762098   15   13    4    2
 -0.002229344011120033    6    4   13   12
 -0.1846029848001726    6    4    4    4
 -0.1174587447568263    6    4   13   13
 0.003204586903020579   15   13    5    1
 0.002797285017289792   15   13    5    2
 0.0006304119429411919    6    4   14   12
 0.001535111412066083    6    4   14   13
 -0.1634067396288763    6    4    5    5
 -0.1124641832699843    6    4   14   14
 0.01066991636432166    6    4   15   10
 -0.01142908417225661   15   13    6    1
 -0.100569855046112    6    4   15   11
 -0.02886722585467044   15   13    6    2
 0.1292521337108296    6    4    6    4
 0.03875992701770167   15   13   15   13
 0.0009828078338207889   15   14    3    1
 0.0008578932984562171   15   14    3    2
 -4.490132683279455e-05    6    5   12   12
 -0.003057924724347383   15   14    4    1
 -0.002669263550741648   15   14    4    2
 -0.0003849931161432117    6    5   13   12
 -0.001608737418097917    6    5   13   13
 0.008426793717934406   15   14   14   10
 0.01164877313091755   15   14    5    1
 -0.0003190912432457522   15   14   14   11
 0.01016821809956523   15   14    5    2
 -0.001185277456649101    6    5   14   12
 -0.01059812258564813    6    5    5    4
 -0.002696446614669809    6    5   14   13
 0.001653638744930709    6    5   14   14
 0.003231906391804788   15   14    6    1
 0.008163048792645388   15   14    6    2
 0.01414515274194524    6    5    6    5
 0.03875992701770169   15   14   15   14
 0.8001281608446981    6    6    1    1
 0.7898375596180671   15   15   10   10
 0.8003798706315534    6    6   10   10
 0.7895853393240525   15   15    1    1
 -0.01518684323813757    6    6    2    1
 -0.01318594527393521   15   15   11   10
 -0.01301713544767656    6    6   11   10
 -0.015140701975203   15   15    2    1
 0.5407124459481599    6    6    2    2
 0.5494973015730543   15   15   11   11
 0.5270966097449571    6    6   11   11
 0.563303931942341   15   15    2    2
 0.51761711213408    6    6    3    3
 0.4916302610968282   15   15   12   12
 0.4646560627534369    6    6   12   12
 0.5518777568413533   15   15    3    3
 0.01426590949547528    6    6   13   12
 0.564367769156309    6    6    4    4
 0.4916302610968282   15   15   13   13
 0.49353640526329    6    6   13   13
 0.5518777568413535   15   15    4    4
 -0.004034101367041769    6    6   14   12
 -0.009823410097665256    6    6   14   13
 0.51761711213408    6    6    5    5
 0.4916302610968285   15   15   14   14
 0.461575450926289    6    6   14   14
 0.5518777568413533   15   15    5    5
 -0.01215393641607672   15   15   15   10
 -0.01214950902836975    6    6   15   10
 0.1030512315201471   15   15   15   11
 0.1013771981272139    6    6   15   11
 -0.1205171181973057    6    6    6    4
 -0.1152743179017902   15   15    6    4
 0.4907369043383968    6    6    6    6
 0.4835412980257816   15   15   15   15
 0.4690288307730279    6    6   15   15
 0.4690288307730288   15   15    6    6
 0.006116485750029525   16   10   12   10
 -0.0003977617344036856    7    1   12   10
 -0.00513994408881839   16   10    3    1
 0.007260492839835946   16   10   12   11
 -0.0004691338029297236    7    1   12   11
 -0.005189696284148779   16   10    3    2
 0.02348898164442646   16   10   13   10
 -0.005852393526616356    7    1   13   10
 0.03751163016000761   16   10    4    1
 0.02788228241087182   16   10   13   11
 -0.006902513223145752    7    1   13   11
 0.03787472476155045   16   10    4    2
 -0.03222246813113636    7    1    5    1
 -0.009572950431555262   16   10   14   10
 -0.02127363261709201    7    1   14   10
 -0.004218101200662493   16   10    5    1
 -0.03233561568364744    7    1    5    2
 -0.01136344314446836   16   10   14   11
 -0.02509085039753315    7    1   14   11
 -0.004258930398652263   16   10    5    2
 -0.04217855943180408   16   10    6    1
 -0.02197497580008205   16   10    6    2
 0.003551566014768768   16   10   15   12
 -0.0002301937436565407    7    1   15   12
 0.01363898688547908   16   10   15   13
 -0.003386912965026132    7    1   15   13
 -0.005558578373801252   16   10   15   14
 -0.01231153404096008    7    1   15   14
 0.03624158428345627    7    1    7    1
 0.05063156128778878   16   10   16   10
 0.004742887243839018    7    1   16   10
 0.004742887243839017   16   10    7    1
 0.003884102119026857   16   11   12   10
 -0.0002259917988378162    7    2   12   10
 -0.003216336260651776   16   11    3    1
 0.01222789367367463   16   11   12   11
 -0.0005077689406164741    7    2   12   11
 -0.008995120775946067   16   11    3    2
 0.01491601666503669   16   11   13   10
 -0.003325088429055698    7    2   13   10
 0.0234730211447742   16   11    4    1
 0.04695846304384106   16   11   13   11
 -0.007470964157816088    7    2   13   11
 0.06564694828605776   16   11    4    2
 -0.01802033762202628    7    2    5    1
 -0.006079032728289016   16   11   14   10
 -0.01208679992850241    7    2   14   10
 -0.002639490159494792   16   11    5    1
 -0.04000933641260584    7    2    5    2
 -0.01913795352500419   16   11   14   11
 -0.02715718723732715    7    2   14   11
 -0.007381856512342851   16   11    5    2
 -0.02429641162182279   16   11    6    1
 -0.04130818320276394   16   11    6    2
 0.007978226221095622   16   11   15   12
 -0.0005814162087103985    7    2   15   12
 0.03063857530633377   16   11   15   13
 -0.008554559581322646    7    2   15   13
 -0.01248677218710338   16   11   15   14
 -0.03109609032721703    7    2   15   14
 0.01879270770224557    7    2    7    1
 0.02931579171121326   16   11   16   10
 0.002471038219652689    7    2   16   10
 0.002732078627258998   16   11    7    1
 0.03464944811900331    7    2    7    2
 0.05441972339904011   16   11   16   11
 0.004645015330486228    7    2   16   11
 0.004645015330486226   16   11    7    2
 0.09644362147679898   16   12   10   10
 0.09640029935402954   16   12    1    1
 -0.002244557003393924   16   12   11   10
 -0.002647773277253632   16   12    2    1
 0.04081858359704597   16   12   11   11
 0.04398412012776324   16   12    2    2
 0.03057676049651275   16   12   12   12
 -0.0001136050683238771    7    3   12   12
 0.03724354827707426   16   12    3    3
 0.004462847873723732   16   12   13   12
 -0.0008138319267115394    7    3   13   12
 0.01063311437577548   16   12    4    3
 0.02825252645032047   16   12   13   13
 0.0006450796006717353    7    3   13   13
 0.04921089387295227   16   12    4    4
 -0.01059812258564812    7    3    5    3
 -0.001818836683746419   16   12   14   12
 -0.003042958778370641    7    3   14   12
 -0.001293992283160449   16   12    5    3
 0.001099337676139282    7    3   14   13
 -0.0002817145564807987   16   12    5    4
 0.0282525264503205   16   12   14   14
 -0.0005314745323478571    7    3   14   14
 0.04027534105246106   16   12    5    5
 -0.002053942910484143   16   12   15   10
 0.02361438220131098   16   12   15   11
 -0.01223720207893499   16   12    6    3
 -0.03379928866567845   16   12    6    4
 0.0003242133804266227   16   12    6    5
 0.02837354016132528   16   12   15   15
 0.029744559268989   16   12    6    6
 0.01414515274194524    7    3    7    3
 0.02096082393710428   16   12   16   12
 0.001489201046655914    7    3   16   12
 0.001489201046655914   16   12    7    3
 0.3703699390748375   16   13   10   10
 0.3702035702499736   16   13    1    1
 -0.008619714065766334   16   13   11   10
 -0.01016817506812851   16   13    2    1
 0.1567545482890846   16   13   11   11
 0.1689110761555021   16   13    2    2
 0.1084974448272112   16   13   12   12
 -4.490132683279444e-05    7    4   12   12
 0.1560455230642058   16   13    3    3
 0.001162117023096117   16   13   13   12
 -0.0003849931161432106    7    4   13   12
 -0.0058211235481043   16   13    4    3
 0.1174231405746587   16   13   13   13
 -0.001608737418097913    7    4   13   13
 0.1764961133742052   16   13    4    4
 -0.001185277456649097    7    4   14   12
 4.851992958963896e-05   16   13    5    3
 -0.01059812258564812    7    4    5    4
 -0.001818836683746407   16   13   14   13
 -0.002696446614669802    7    4   14   13
 0.001989689609505007   16   13    5    4
 0.1084974448272113   16   13   14   14
 0.001653638744930705    7    4   14   14
 0.1541354642858099   16   13    5    5
 -0.00788770370679422   16   13   15   10
 0.09068569972036424   16   13   15   11
 0.00669928514517687   16   13    6    3
 -0.1154275336063863   16   13    6    4
 0.01414515274194524    7    4    6    5
 -0.002289849705871733   16   13    6    5
 0.1089621706440744   16   13   15   15
 0.1109982810569285   16   13    6    6
 0.02448361819756681   16   13   16   12
 0.0003242133804266227    7    4   16   12
 -5.583953696546441e-05   16   13    7    3
 0.01414515274194524    7    4    7    4
 0.1086091409173308   16   13   16   13
 -0.002289849705871731    7    4   16   13
 -0.002289849705871732   16   13    7    4
 -0.4274190206321808    7    5    1    1
 -0.1509445203616503   16   14   10   10
 -0.4276430327863091    7    5   10   10
 -0.150876716634018   16   14    1    1
 0.01363350984086495    7    5    2    1
 0.003512970325188208   16   14   11   10
 0.01161381615451358    7    5   11   10
 0.004144046658986057   16   14    2    1
 -0.1763303138331291    7    5    2    2
 -0.06388542268065117   16   14   11   11
 -0.1627947010392742    7    5   11   11
 -0.06883982387380161   16   14    2    2
 -0.1634067396288762    7    5    3    3
 -0.04421820737076293   16   14   12   12
 -0.1120322880119727    7    5   12   12
 -0.06338137774769464   16   14    3    3
 -3.240165907001942e-05    7    5   13   12
 0.001402584142134964   16   14    4    3
 -0.1634067396288762    7    5    4    4
 -0.04421820737076292   16   14   13   13
 -0.1125068216149771    7    5   13   13
 -0.06923110998318344   16   14    4    4
 0.001162117023096142   16   14   14   12
 -0.0001177810391774725    7    5   14   12
 -0.001707599706791574   16   14    5    3
 0.004462847873723745   16   14   14   13
 -0.001732949481110354    7    5   14   13
 0.0119992283768036   16   14    5    4
 -0.1846029848001724    7    5    5    5
 -0.04785588073825582   16   14   14   14
 -0.1183294111116766    7    5   14   14
 -0.0657330953996479   16   14    5    5
 0.003214639005938024   16   14   15   10
 0.0106699163643217    7    5   15   10
 -0.03695901854816869   16   14   15   11
 -0.1005698550461118    7    5   15   11
 -0.001614174829071513   16   14    6    3
 0.1009618282269391    7    5    6    4
 0.04393525272995192   16   14    6    4
 -0.01380940496349431   16   14    6    5
 -0.1136272528372202    7    5    6    6
 -0.04440760669323855   16   14   15   15
 -0.1152743179017902    7    5   15   15
 -0.04453925065479947   16   14    6    6
 -0.00997831523471117   16   14   16   12
 -0.02351573845761687    7    5   16   12
 0.001965204355324598   16   14    7    3
 -0.03831946528924723   16   14   16   13
 -0.0896936073228282    7    5   16   13
 -0.01380940496349431   16   14    7    4
 0.1292521337108295    7    5    7    5
 0.03020246085645511   16   14   16   14
 0.03990953553920044    7    5   16   14
 0.03990953553920044   16   14    7    5
 0.004326985729730546   16   15   12   10
 -0.003591354369834024   16   15    3    1
 0.02161798778719207   16   15   12   11
 -0.01368227277025992   16   15    3    2
 0.0002873303813266489    7    6   12   12
 0.01661681111263039   16   15   13   10
 0.02620992652192665   16   15    4    1
 0.08301899801210827   16   15   13   11
 0.09985407370925736   16   15    4    2
 0.002463629176961655    7    6   13   12
 0.01029455404553699    7    6   13   13
 -0.006772192661211958   16   15   14   10
 -0.002947249214705738   16   15    5    1
 -0.0338344490569209   16   15   14   11
 -0.01122837334467829   16   15    5    2
 0.007584769707698889    7    6   14   12
 0.02337532851111451    7    6    5    4
 0.0172549697006762    7    6   14   13
 -0.01058188442686365    7    6   14   14
 -0.02696758329560717   16   15    6    1
 -0.02541153741022126   16   15    6    2
 1.487089320656523e-05   16   15   15   12
 5.710830562528251e-05   16   15   15   13
 -0.003444932680042715    7    6    6    5
 -2.327452876657284e-05   16   15   15   14
 0.03255391288606943   16   15   16   10
 0.003032446070537375   16   15    7    1
 0.04454888573971719   16   15   16   11
 0.002857472096081053   16   15    7    2
 -7.284658177076729e-05    7    6   16   12
 -0.003444932680042709    7    6    7    4
 0.0005144998137401296    7    6   16   13
 0.003102795901128803    7    6   16   14
 0.02274618496305394    7    6    7    6
 0.08601438426490851   16   15   16   15
 0.8001281608446978    7    7    1    1
 1.014296987872666   16   16   10   10
 0.8003798706315531    7    7   10   10
 1.013941050189661   16   16    1    1
 -0.01518684323813757    7    7    2    1
 -0.01841919884057875   16   16   11   10
 -0.01301713544767658    7    7   11   10
 -0.02154235490435368   16   16    2    1
 0.5407124459481598    7    7    2    2
 0.6129943252528143   16   16   11   11
 0.5270966097449569    7    7   11   11
 0.6335038194700375   16   16    2    2
 0.5176171121340799    7    7    3    3
 0.5207038456264208   16   16   12   12
 0.4588116878499829    7    7   12   12
 0.604196706144237   16   16    3    3
 0.01005185193617591   16   16   13   12
 0.0002073431168499434    7    7   13   12
 -0.007760419083406889   16   16    4    3
 0.5176171121340799    7    7    4    4
 0.5566882290468341   16   16   13   13
 0.4618483001445661    7    7   13   13
 0.6597693716218465   16   16    4    4
 -0.004096639087509326   16   16   14   12
 0.0007536986830240944    7    7   14   12
 0.0008726422422521585   16   16    5    3
 -0.01573221687467867   16   16   14   13
 0.01108940582271575    7    7   14   13
 -0.006368597106838945   16   16    5    4
 0.5643677691563087    7    7    5    5
 0.5244980383479219   16   16   14   14
 0.4991079309484666    7    7   14   14
 0.6038494876139822   16   16    5    5
 -0.0171036183193948   16   16   15   10
 -0.01214950902836977    7    7   15   10
 0.1526998580722035   16   16   15   11
 0.1013771981272138    7    7   15   11
 0.002830717940738908   16   16    6    3
 -0.1136272528372202    7    7    6    4
 -0.185662661427447   16   16    6    4
 0.002323032028800249   16   16    6    5
 0.4452445344122887    7    7    6    6
 0.5292763265175532   16   16   15   15
 0.4690288307730282    7    7   15   15
 0.5514433026302372   16   16    6    6
 0.04443956456128089   16   16   16   12
 0.02743397763864539    7    7   16   12
 -0.0003183080738863098   16   16    7    3
 0.1706601076052853   16   16   16   13
 0.105216198396332    7    7   16   13
 0.002323032028800247   16   16    7    4
 -0.1205171181973056    7    7    7    5
 -0.06955264282974723   16   16   16   14
 -0.04363472371597859    7    7   16   14
 -0.1652651265515845   16   16    7    5
 -0.005327693777395965   16   16    7    6
 0.4907369043383966    7    7    7    7
 0.6487634180800216   16   16   16   16
 0.50466313848051    7    7   16   16
 0.50466313848051   16   16    7    7
 -0.03222246813113637    8    1    3    1
 3.675091642541288e-05   17   10   12   10
 -0.02051936800557559    8    1   12   10
 -0.002235561014307553   17   10    3    1
 -0.03233561568364745    8    1    3    2
 4.36246852308657e-05   17   10   12   11
 -0.02420124490004482    8    1   12   11
 -0.002257200173476385   17   10    3    2
 0.009839128509321103   17   10   13   10
 0.007918976625145482    8    1   13   10
 0.003947055335006211   17   10    4    1
 0.01167940628191715   17   10   13   11
 0.009339912058246665    8    1   13   11
 0.003985260938922075   17   10    4    2
 0.02416557957373957   17   10   14   10
 -0.001794857926661037    8    1   14   10
 0.03782534628222335   17   10    5    1
 0.02868542895972168   17   10   14   11
 -0.00211691686762026    8    1   14   11
 0.0381914775054728   17   10    5    2
 -0.004438119786264844   17   10    6    1
 -0.002312254762012952   17   10    6    2
 2.133959124934977e-05   17   10   15   12
 -0.0118750239908093    8    1   15   12
 0.005713135917708724   17   10   15   13
 0.004582891509168723    8    1   15   13
 0.01403185663284989   17   10   15   14
 -0.001038725019864284    8    1   15   14
 0.005779419244155092    8    1   16   10
 -0.04253130587468458   17   10    7    1
 0.00332915943035255    8    1   16   11
 -0.0221587562480226   17   10    7    2
 0.00369517053134503    8    1   16   15
 0.03624158428345629    8    1    8    1
 0.05063156128778875   17   10   17   10
 0.002513693558589303    8    1   17   10
 0.002513693558589303   17   10    8    1
 -0.01802033762202629    8    2    3    1
 2.333763507311747e-05   17   11   12   10
 -0.01165825791047283    8    2   12   10
 -0.001398909371185362   17   11    3    1
 -0.04000933641260586    8    2    3    2
 7.347132272118303e-05   17   11   12   11
 -0.02619431899333088    8    2   12   11
 -0.003912326861577942   17   11    3    2
 0.006248061624642413   17   11   13   10
 0.004499235642046376    8    2   13   10
 0.002469882352299658   17   11    4    1
 0.01967008870298082   17   11   13   11
 0.01010909301706697    8    2   13   11
 0.00690751471887798   17   11    4    2
 0.0153456711363091   17   11   14   10
 -0.001019764186498585    8    2   14   10
 0.02366932999988969   17   11    5    1
 0.04831109719972525   17   11   14   11
 -0.002291253856643762    8    2   14   11
 0.06619596484342283   17   11    5    2
 -0.002556521289646957   17   11    6    1
 -0.004346536905871707   17   11    6    2
 4.793718763640033e-05   17   11   15   12
 -0.02999356679903062    8    2   15   12
 0.01283396974568545   17   11   15   13
 0.01157532504518287    8    2   15   13
 0.03152111661541122   17   11   15   14
 -0.002623579395985755    8    2   15   14
 0.003011070073035076    8    2   16   10
 -0.02449960663108373   17   11    7    1
 0.005660157960803233    8    2   16   11
 -0.04165365054168982   17   11    7    2
 0.003481956954211657    8    2   16   15
 0.01879270770224557    8    2    8    1
 0.02931579171121322   17   11   17   10
 0.001309631145846353    8    2   17   10
 0.001447980543037669   17   11    8    1
 0.03464944811900332    8    2    8    2
 0.05441972339904009   17   11   17   11
 0.002461822201436274    8    2   17   11
 0.002461822201436275   17   11    8    2
 -0.427419020632181    8    3    1    1
 0.0005794816856460786   17   12   10   10
 -0.4276430327863093    8    3   10   10
 0.0005792213845878666   17   12    1    1
 0.01363350984086494    8    3    2    1
 -1.348642508378345e-05   17   12   11   10
 0.01161381615451357    8    3   11   10
 -1.590915084291939e-05   17   12    2    1
 -0.1763303138331292    8    3    2    2
 0.0002452585382661838   17   12   11   11
 -0.1627947010392743    8    3   11   11
 0.0002642786706161058   17   12    2    2
 -0.1846029848001725    8    3    3    3
 0.0001837205244140707   17   12   12   12
 -0.1178906400148377    8    3   12   12
 -0.001097671504637913   17   12    3    3
 0.001869409854025635   17   12   13   12
 0.002261745670190114    8    3   13   12
 0.0009180984032295087   17   12    4    3
 -0.1634067396288763    8    3    4    4
 0.0001697553596649762   17   12   13   13
 -0.112902954366823    8    3   13   13