 &FCI NORB=   9,NELEC= 7,MS2=3,
  ORBSYM=1,1,1,1,1,1,1,1,1
  ISYM=1, UHF=TRUE
 &END
 4.118000736791725    1    1    1    1
 -0.4209229204939736    2    1    1    1
 0.06888654263025916    2    1    2    1
 0.990828066921179    2    2    1    1
 -0.01904002882108883    2    2    2    1
 0.6990903324446496    2    2    2    2
 0.02877068412215424    3    1    3    1
 0.03189972085796181    3    2    3    1
 0.1391089557000916    3    2    3    2
 0.9504297507720305    3    3    1    1
 -0.01236968976156965    3    3    2    1
 0.6778193208990597    3    3    2    2
 0.708502526474338    3    3    3    3
 0.02877068412215424    4    1    4    1
 0.03189972085796182    4    2    4    1
 0.1391089557000916    4    2    4    2
 0.03579916399559368    4    3    4    3
 0.9504297507720306    4    4    1    1
 -0.01236968976156966    4    4    2    1
 0.6778193208990597    4    4    2    2
 0.6369041984831507    4    4    3    3
 0.7085025264743381    4    4    4    4
 0.02877068412215424    5    1    5    1
 0.03189972085796181    5    2    5    1
 0.1391089557000916    5    2    5    2
 0.03579916399559368    5    3    5    3
 0.03579916399559368    5    4    5    4
 0.9504297507720305    5    5    1    1
 -0.01236968976156967    5    5    2    1
 0.6778193208990595    5    5    2    2
 0.6369041984831506    5    5    3    3
 0.6369041984831507    5    5    4    4
 0.7085025264743379    5    5    5    5
 -0.03222246813113638    6    1    4    1
 -0.03233561568364746    6    1    4    2
 0.0362415842834563    6    1    6    1
 -0.01802033762202629    6    2    4    1
 -0.04000933641260588    6    2    4    2
 0.01879270770224558    6    2    6    1
 0.03464944811900333    6    2    6    2
 -0.01059812258564813    6    3    4    3
 0.01414515274194524    6    3    6    3
 -0.427419020632181    6    4    1    1
 0.01363350984086493    6    4    2    1
 -0.1763303138331292    6    4    2    2
 -0.1634067396288763    6    4    3    3
 -0.1846029848001726    6    4    4    4
 -0.1634067396288763    6    4    5    5
 0.1292521337108296    6    4    6    4
 -0.01059812258564813    6    5    5    4
 0.01414515274194524    6    5    6    5
 0.8001281608446981    6    6    1    1
 -0.01518684323813757    6    6    2    1
 0.5407124459481599    6    6    2    2
 0.51761711213408    6    6    3    3
 0.564367769156309    6    6    4    4
 0.51761711213408    6    6    5    5
 -0.1205171181973057    6    6    6    4
 0.4907369043383968    6    6    6    6
 -0.03222246813113636    7    1    5    1
 -0.03233561568364744    7    1    5    2
 0.03624158428345627    7    1    7    1
 -0.01802033762202628    7    2    5    1
 -0.04000933641260584    7    2    5    2
 0.01879270770224557    7    2    7    1
 0.03464944811900331    7    2    7    2
 -0.01059812258564812    7    3    5    3
 0.01414515274194524    7    3    7    3
 -0.01059812258564812    7    4    5    4
 0.01414515274194524    7    4    6    5
 0.01414515274194524    7    4    7    4
 -0.4274190206321808    7    5    1    1
 0.01363350984086495    7    5    2    1
 -0.1763303138331291    7    5    2    2
 -0.1634067396288762    7    5    3    3
 -0.1634067396288762    7    5    4    4
 -0.1846029848001724    7    5    5    5
 0.1009618282269391    7    5    6    4
 -0.1136272528372202    7    5    6    6
 0.1292521337108295    7    5    7    5
 0.02337532851111451    7    6    5    4
 -0.003444932680042715    7    6    6    5
 -0.003444932680042709    7    6    7    4
 0.02274618496305394    7    6    7    6
 0.8001281608446978    7    7    1    1
 -0.01518684323813757    7    7    2    1
 0.5407124459481598    7    7    2    2
 0.5176171121340799    7    7    3    3
 0.5176171121340799    7    7    4    4
 0.5643677691563087    7    7    5    5
 -0.1136272528372202    7    7    6    4
 0.4452445344122887    7    7    6    6
 -0.1205171181973056    7    7    7    5
 0.4907369043383966    7    7    7    7
 -0.03222246813113637    8    1    3    1
 -0.03233561568364745    8    1    3    2
 0.03624158428345629    8    1    8    1
 -0.01802033762202629    8    2    3    1
 -0.04000933641260586    8    2    3    2
 0.01879270770224557    8    2    8    1
 0.03464944811900332    8    2    8    2
 -0.427419020632181    8    3    1    1
 0.01363350984086494    8    3    2    1
 -0.1763303138331292    8    3    2    2
 -0.1846029848001725    8    3    3    3
 -0.1634067396288763    8    3    4    4
 -0.1634067396288762    8    3    5    5
 0.1009618282269391    8    3    6    4
 -0.1136272528372202    8    3    6    6
 0.1009618282269391    8    3    7    5
 -0.1136272528372201    8    3    7    7
 0.1292521337108296    8    3    8    3
 -0.01059812258564812    8    4    4    3
 0.01414515274194524    8    4    6    3
 0.01414515274194524    8    4    8    4
 -0.01059812258564813    8    5    5    3
 0.01414515274194524    8    5    7    3
 0.01414515274194524    8    5    8    5
 0.02337532851111451    8    6    4    3
 -0.003444932680042719    8    6    6    3
 -0.003444932680042713    8    6    8    4
 0.02274618496305395    8    6    8    6
 0.0233753285111145    8    7    5    3
 -0.003444932680042708    8    7    7    3
 -0.003444932680042709    8    7    8    5
 0.02274618496305394    8    7    8    7
 0.8001281608446981    8    8    1    1
 -0.0151868432381376    8    8    2    1
 0.5407124459481599    8    8    2    2
 0.5643677691563089    8    8    3    3
 0.51761711213408    8    8    4    4
 0.5176171121340799    8    8    5    5
 -0.1136272528372203    8    8    6    4
 0.4452445344122887    8    8    6    6
 -0.1136272528372202    8    8    7    5
 0.4452445344122887    8    8    7    7
 -0.1205171181973057    8    8    8    3
 0.4907369043383966    8    8    8    8
 -0.3423798300065313    9    1    1    1
 0.05628369020925493    9    1    2    1
 -0.01452217082478889    9    1    2    2
 -0.009185286135383275    9    1    3    3
 -0.009185286135383275    9    1    4    4
 -0.009185286135383275    9    1    5    5
 0.01019036804878989    9    1    6    4
 -0.01162630734083191    9    1    6    6
 0.01019036804878988    9    1    7    5
 -0.01162630734083191    9    1    7    7
 0.01019036804878989    9    1    8    3
 -0.01162630734083191    9    1    8    8
 0.04619020329138805    9    1    9    1
 0.3769348488686098    9    2    1    1
 -0.01583802089030675    9    2    2    1
 0.1524045159443042    9    2    2    2
 0.1449018039937823    9    2    3    3
 0.1449018039937823    9    2    4    4
 0.1449018039937823    9    2    5    5
 -0.09653928434945848    9    2    6    4
 0.0966401431779029    9    2    6    6
 -0.09653928434945844    9    2    7    5
 0.09664014317790283    9    2    7    7
 -0.09653928434945845    9    2    8    3
 0.09664014317790287    9    2    8    8
 -0.01196115361705742    9    2    9    1
 0.08706994808354072    9    2    9    2
 0.01606638735835473    9    3    3    1
 0.02580943439069886    9    3    3    2
 -0.01688352273624695    9    3    8    1
 -0.03494410225470999    9    3    8    2
 0.03760139381770365    9    3    9    3
 0.01606638735835473    9    4    4    1
 0.02580943439069885    9    4    4    2
 -0.01688352273624695    9    4    6    1
 -0.03494410225471    9    4    6    2
 0.03760139381770366    9    4    9    4
 0.01606638735835473    9    5    5    1
 0.02580943439069886    9    5    5    2
 -0.01688352273624694    9    5    7    1
 -0.03494410225470999    9    5    7    2
 0.03760139381770364    9    5    9    5
 -0.02153029558573564    9    6    4    1
 -0.09305904035065932    9    6    4    2
 0.02204154958057388    9    6    6    1
 0.01466412168998492    9    6    6    2
 -0.002410344401729509    9    6    9    4
 0.08117758782695703    9    6    9    6
 -0.02153029558573563    9    7    5    1
 -0.0930590403506593    9    7    5    2
 0.02204154958057387    9    7    7    1
 0.01466412168998491    9    7    7    2
 -0.002410344401729513    9    7    9    5
 0.08117758782695703    9    7    9    7
 -0.02153029558573564    9    8    3    1
 -0.09305904035065932    9    8    3    2
 0.02204154958057388    9    8    8    1
 0.01466412168998491    9    8    8    2
 -0.002410344401729509    9    8    9    3
 0.08117758782695703    9    8    9    8
 0.7399481398738302    9    9    1    1
 -0.01337643406253992    9    9    2    1
 0.5420969263294366    9    9    2    2
 0.5316958827832711    9    9    3    3
 0.5316958827832712    9    9    4    4
 0.5316958827832711    9    9    5    5
 -0.1019627172620636    9    9    6    4
 0.4556647043566815    9    9    6    6
 -0.1019627172620634    9    9    7    5
 0.4556647043566813    9    9    7    7
 -0.1019627172620635    9    9    8    3
 0.4556647043566814    9    9    8    8
 -0.01023346252013358    9    9    9    1
 0.08578206135702619    9    9    9    2
 0.4580848937875496    9    9    9    9
 0  0  0  0  0
 4.13247334117247    1    1    1    1
 -0.3794820050069865    2    1    1    1
 0.05666599100935402    2    1    2    1
 0.934232859778399    2    2    1    1
 -0.01401248048370355    2    2    2    1
 0.6577721481355276    2    2    2    2
 0.01351792925657742    3    1    3    1
 0.01789260959207023    3    2    3    1
 0.1142061286433494    3    2    3    2
 0.7367147860172447    3    3    1    1
 -0.005019773087046733    3    3    2    1
 0.5715375788467911    3    3    2    2
 0.547776775681091    3    3    3    3
 0.01351792925657743    4    1    4    1
 0.01789260959207022    4    2    4    1
 0.1142061286433494    4    2    4    2
 0.02783879240909909    4    3    4    3
 0.7367147860172448    4    4    1    1
 -0.005019773087046719    4    4    2    1
 0.5715375788467911    4    4    2    2
 0.4920991908628929    4    4    3    3
 0.5477767756810912    4    4    4    4
 0.01351792925657744    5    1    5    1
 0.01789260959207024    5    2    5    1
 0.1142061286433495    5    2    5    2
 0.02783879240909911    5    3    5    3
 0.0278387924090991    5    4    5    4
 0.7367147860172454    5    5    1    1
 -0.005019773087046783    5    5    2    1
 0.5715375788467916    5    5    2    2
 0.4920991908628932    5    5    3    3
 0.4920991908628932    5    5    4    4
 0.5477767756810918    5    5    5    5
 -0.3624122252630161    6    1    1    1
 0.05400566209770909    6    1    2    1
 -0.01294103482538434    6    1    2    2
 -0.004665083905857699    6    1    3    3
 -0.004665083905857699    6    1    4    4
 -0.004665083905857704    6    1    5    5
 0.05169632239961167    6    1    6    1
 0.3871330234890916    6    2    1    1
 -0.01351071854607617    6    2    2    1
 0.1487129207475196    6    2    2    2
 0.1020242512730406    6    2    3    3
 0.1020242512730406    6    2    4    4
 0.1020242512730407    6    2    5    5
 -0.01232161019068604    6    2    6    1
 0.09447896844129661    6    2    6    2
 0.008426793717934396    6    3    3    1
 -0.0003190912432457652    6    3    3    2
 0.03875992701770165    6    3    6    3
 0.008426793717934396    6    4    4    1
 -0.0003190912432457661    6    4    4    2
 0.03875992701770167    6    4    6    4
 0.008426793717934406    6    5    5    1
 -0.0003190912432457522    6    5    5    2
 0.03875992701770169    6    5    6    5
 0.7898375596180671    6    6    1    1
 -0.01318594527393521    6    6    2    1
 0.5494973015730543    6    6    2    2
 0.4916302610968282    6    6    3    3
 0.4916302610968282    6    6    4    4
 0.4916302610968285    6    6    5    5
 -0.01215393641607672    6    6    6    1
 0.1030512315201471    6    6    6    2
 0.4835412980257816    6    6    6    6
 0.006116485750029525    7    1    3    1
 0.007260492839835946    7    1    3    2
 0.02348898164442646    7    1    4    1
 0.02788228241087182    7    1    4    2
 -0.009572950431555262    7    1    5    1
 -0.01136344314446836    7    1    5    2
 0.003551566014768768    7    1    6    3
 0.01363898688547908    7    1    6    4
 -0.005558578373801252    7    1    6    5
 0.05063156128778878    7    1    7    1
 0.003884102119026857    7    2    3    1
 0.01222789367367463    7    2    3    2
 0.01491601666503669    7    2    4    1
 0.04695846304384106    7    2    4    2
 -0.006079032728289016    7    2    5    1
 -0.01913795352500419    7    2    5    2
 0.007978226221095622    7    2    6    3
 0.03063857530633377    7    2    6    4
 -0.01248677218710338    7    2    6    5
 0.02931579171121326    7    2    7    1
 0.05441972339904011    7    2    7    2
 0.09644362147679898    7    3    1    1
 -0.002244557003393924    7    3    2    1
 0.04081858359704597    7    3    2    2
 0.03057676049651275    7    3    3    3
 0.004462847873723732    7    3    4    3
 0.02825252645032047    7    3    4    4
 -0.001818836683746419    7    3    5    3
 0.0282525264503205    7    3    5    5
 -0.002053942910484143    7    3    6    1
 0.02361438220131098    7    3    6    2
 0.02837354016132528    7    3    6    6
 0.02096082393710428    7    3    7    3
 0.3703699390748375    7    4    1    1
 -0.008619714065766334    7    4    2    1
 0.1567545482890846    7    4    2    2
 0.1084974448272112    7    4    3    3
 0.001162117023096117    7    4    4    3
 0.1174231405746587    7    4    4    4
 -0.001818836683746407    7    4    5    4
 0.1084974448272113    7    4    5    5
 -0.00788770370679422    7    4    6    1
 0.09068569972036424    7    4    6    2
 0.1089621706440744    7    4    6    6
 0.02448361819756681    7    4    7    3
 0.1086091409173308    7    4    7    4
 -0.1509445203616503    7    5    1    1
 0.003512970325188208    7    5    2    1
 -0.06388542268065117    7    5    2    2
 -0.04421820737076293    7    5    3    3
 -0.04421820737076292    7    5    4    4
 0.001162117023096142    7    5    5    3
 0.004462847873723745    7    5    5    4
 -0.04785588073825582    7    5    5    5
 0.003214639005938024    7    5    6    1
 -0.03695901854816869    7    5    6    2
 -0.04440760669323855    7    5    6    6
 -0.00997831523471117    7    5    7    3
 -0.03831946528924723    7    5    7    4
 0.03020246085645511    7    5    7    5
 0.004326985729730546    7    6    3    1
 0.02161798778719207    7    6    3    2
 0.01661681111263039    7    6    4    1
 0.08301899801210827    7    6    4    2
 -0.006772192661211958    7    6    5    1
 -0.0338344490569209    7    6    5    2
 1.487089320656523e-05    7    6    6    3
 5.710830562528251e-05    7    6    6    4
 -2.327452876657284e-05    7    6    6    5
 0.03255391288606943    7    6    7    1
 0.04454888573971719    7    6    7    2
 0.08601438426490851    7    6    7    6
 1.014296987872666    7    7    1    1
 -0.01841919884057875    7    7    2    1
 0.6129943252528143    7    7    2    2
 0.5207038456264208    7    7    3    3
 0.01005185193617591    7    7    4    3
 0.5566882290468341    7    7    4    4
 -0.004096639087509326    7    7    5    3
 -0.01573221687467867    7    7    5    4
 0.5244980383479219    7    7    5    5
 -0.0171036183193948    7    7    6    1
 0.1526998580722035    7    7    6    2
 0.5292763265175532    7    7    6    6
 0.04443956456128089    7    7    7    3
 0.1706601076052853    7    7    7    4
 -0.06955264282974723    7    7    7    5
 0.6487634180800216    7    7    7    7
 3.675091642541288e-05    8    1    3    1
 4.36246852308657e-05    8    1    3    2
 0.009839128509321103    8    1    4    1
 0.01167940628191715    8    1    4    2
 0.02416557957373957    8    1    5    1
 0.02868542895972168    8    1    5    2
 2.133959124934977e-05    8    1    6    3
 0.005713135917708724    8    1    6    4
 0.01403185663284989    8    1    6    5
 0.05063156128778875    8    1    8    1
 2.333763507311747e-05    8    2    3    1
 7.347132272118303e-05    8    2    3    2
 0.006248061624642413    8    2    4    1
 0.01967008870298082    8    2    4    2
 0.0153456711363091    8    2    5    1
 0.04831109719972525    8    2    5    2
 4.793718763640033e-05    8    2    6    3
 0.01283396974568545    8    2    6    4
 0.03152111661541122    8    2    6    5
 0.02931579171121322    8    2    8    1
 0.05441972339904009    8    2    8    2
 0.0005794816856460786    8    3    1    1
 -1.348642508378345e-05    8    3    2    1
 0.0002452585382661838    8    3    2    2
 0.0001837205244140707    8    3    3    3
 0.001869409854025635    8    3    4    3
 0.0001697553596649762    8    3    4    4
 0.004591399791210435    8    3    5    3
 0.0001697553596649781    8    3    5    5
 -1.234111993891495e-05    8    3    6    1
 0.0001418870609996735    8    3    6    2
 0.0001704824707809381    8    3    6    6
 3.830712713694486e-05    8    3    7    3
 0.00141794841373992    8    3    7    4
 0.003114273324087316    8    3    7    5
 0.0002374468328423646    8    3    7    7
 0.01458556690557264    8    3    8    3
 0.1551415672978499    8    4    1    1
 -0.00361064926911388    8    4    2    1
 0.06566177148011219    8    4    2    2
 0.04544770474718338    8    4    3    3
 6.982582374536747e-06    8    4    4    3
 0.04918652445523464    8    4    4    4
 0.004591399791210439    8    4    5    4
 0.04544770474718342    8    4    5    5
 -0.003304022779251152    8    4    6    1
 0.03798667251792449    8    4    6    2
 0.0456423703611696    8    4    6    6
 0.008984926027026616    8    4    7    3
 0.03938494679201204    8    4    7    4
 -0.001872458719671804    8    4    7    5
 0.06357038489665137    8    4    7    7
 6.162178121995484e-05    8    4    8    3
 0.03108301035642124    8    4    8    4
 0.3810384106863906    8    5    1    1
 -0.00886800412688752    8    5    2    1
 0.161269848457833    8    5    2    2
 0.1116227036237445    8    5    3    3
 0.1116227036237446    8    5    4    4
 6.982582374540731e-06    8    5    5    3
 0.001869409854025639    8    5    5    4
 0.1208055032061655    8    5    5    5
 -0.008114908277679448    8    5    6    1
 0.0932978928574672    8    5    6    2
 0.1121008158244948    8    5    6    6
 0.02201463848976754    8    5    7    3
 0.08255324799530082    8    5    7    4
 -0.03942325391914903    8    5    7    5
 0.1561332584789344    8    5    7    7
 0.0001513473531863824    8    5    8    3
 0.04051942651739871    8    5    8    4
 0.1141038484488964    8    5    8    5
 2.599870210218567e-05    8    6    3    1
 0.0001298917213121772    8    6    3    2
 0.0069604950281478    8    6    4    1
 0.03477522365683432    8    6    4    2
 0.01709545680961233    8    6    5    1
 0.08541035252031738    8    6    5    2
 8.935179050676475e-08    8    6    6    3
 2.392168236592385e-05    8    6    6    4
 5.875330505174942e-05    8    6    6    5
 0.0325539128860694    8    6    8    1
 0.04454888573971715    8    6    8    2
 0.08601438426490859    8    6    8    6
 1.572715139463703e-05    8    7    3    3
 0.002135471823351806    8    7    4    3
 0.01616965476560237    8    7    4    4
 0.005158389965728088    8    7    5    3
 0.01656191787807397    8    7    5    4
 -0.01618538191699694    8    7    5    5
 1.478418826545515e-05    8    7    7    3
 0.003958092542945941    8    7    7    4
 0.009721348818258861    8    7    7    5
 0.002460544814847375    8    7    8    3
 0.009449166458200237    8    7    8    4
 -0.003851014211394293    8    7    8    5
 0.02982618855918814    8    7    8    7
 1.014296987872666    8    8    1    1
 -0.01841919884057885    8    8    2    1
 0.6129943252528141    8    8    2    2
 0.5180864571661483    8    8    3    3
 2.529908022036518e-05    8    8    4    3
 0.5248595516309955    8    8    4    4
 6.213628937048847e-05    8    8    5    3
 0.0166354201656408    8    8    5    4
 0.5589441042240326    8    8    5    5
 -0.01710361831939477    8    8    6    1
 0.1526998580722034    8    8    6    2
 0.5292763265175536    8    8    6    6
 0.03951847493158616    8    8    7    3
 0.1517617746888849    8    8    7    4
 -0.06185061440695869    8    8    7    5
 0.589111040961645    8    8    7    7
 0.0002670152093732808    8    8    8    3
 0.07148656998254327    8    8    8    4
 0.175575956115452    8    8    8    5
 0.6487634180800215    8    8    8    8
 0.02536478440727143    9    1    3    1
 0.0301089290647146    9    1    3    2
 -0.005678408938460939    9    1    4    1
 -0.006740479602876055    9    1    4    2
 0.002273416039307219    9    1    5    1
 0.00269862819107828    9    1    5    2
 0.01472818051973178    9    1    6    3
 -0.003297194668310914    9    1    6    4
 0.001320069640086179    9    1    6    5
 0.05063156128778881    9    1    9    1
 0.01610719241264754    9    2    3    1
 0.05070851130263785    9    2    3    2
 -0.003605913770087786    9    2    4    1
 -0.01135210373617054    9    2    4    2
 0.001443668867480022    9    2    5    1
 0.004544944718385227    9    2    5    2
 0.0330853363059913    9    2    6    3
 -0.007406807264565951    9    2    6    4
 0.002965400100241001    9    2    6    5
 0.02931579171121326    9    2    9    1
 0.05441972339904021    9    2    9    2
 0.3999472517701351    9    3    1    1
 -0.00930807440868206    9    3    2    1
 0.169272784252667    9    3    2    2
 0.1268004160498663    9    3    3    3
 -0.001078883522528452    9    3    4    3
 0.1171619246181773    9    3    4    4
 0.0004319433720328609    9    3    5    3
 0.1171619246181774    9    3    5    5
 -0.008517606553570834    9    3    6    1
 0.09792775425729869    9    3    6    2
 0.1176637628984264    9    3    6    6
 0.02643885147905459    9    3    7    3
 0.08802388771204533    9    3    7    4
 -0.03587954480728317    9    3    7    5
 0.163881293557989    9    3    7    7
 0.0001588578901023129    9    3    8    3
 0.0371789078501121    9    3    8    4
 0.09132673801280311    9    3    8    5
 0.163881293557989    9    3    8    8
 0.1242260348682134    9    3    9    3
 -0.08953610694650206    9    4    1    1
 0.002083796655766872    9    4    2    1
 -0.03789506252861992    9    4    2    2
 -0.02622901536700711    9    4    3    3
 0.004819245715844515    9    4    4    3
 -0.02838678241206397    9    4    4    4
 0.0004319433720328674    9    4    5    4
 -0.02622901536700713    9    4    5    5
 0.001906834783670576    9    4    6    1
 -0.02192306570280325    9    4    6    2
 -0.02634136179702094    9    4    6    6
 0.007589688038540534    9    4    7    3
 -0.02273004501289934    9    4    7    4
 0.009243101545824226    9    4    7    5
 -0.03668807064330697    9    4    7    7
 0.005315711516388718    9    4    8    3
 -0.009521223069184718    9    4    8    4
 -0.01996566905154847    9    4    8    5
 -0.03668807064330697    9    4    8    8
 -0.02454523997878683    9    4    9    3
 0.02008027443713813    9    4    9    4
 0.03584680565194988    9    5    1    1
 -0.0008342718517132953    9    5    2    1
 0.01517172220189987    9    5    2    2
 0.01050108663832008    9    5    3    3
 0.01050108663832008    9    5    4    4
 0.004819245715844519    9    5    5    3
 -0.001078883522528425    9    5    5    4
 0.01136497338238583    9    5    5    5
 -0.0007634231399122438    9    5    6    1
 0.008777150384848385    9    5    6    2
 0.01054606581800236    9    5    6    6
 -0.003130385006786833    9    5    7    3
 0.009120777537789313    9    5    7    4
 -0.003708806466155249    9    5    7    5
 0.01468848917991752    9    5    7    7
 0.01314456845423866    9    5    8    3
 0.0003928178871486109    9    5    8    4
 0.009362365179082373    9    5    8    5
 0.01468848917991751    9    5    8    8
 0.009826967881524767    9    5    9    3
 -0.002199961228151497    9    5    9    4
 0.01546611640553883    9    5    9    5
 0.01794381032726602    9    6    3    1
 0.0896487986649043    9    6    3    2
 -0.004017077035481725    9    6    4    1
 -0.02006965765950458    9    6    4    2
 0.001608282788817971    9    6    5    1
 0.008035117252208544    9    6    5    2
 6.166890851117934e-05    9    6    6    3
 -1.380580554884679e-05    9    6    6    4
 5.527312335273059e-06    9    6    6    5
 0.03255391288606941    9    6    9    1
 0.04454888573971728    9    6    9    2
 0.08601438426490873    9    6    9    6
 0.01085458114423704    9    7    3    3
 0.01962727687504841    9    7    4    3
 -0.009331915124986826    9    7    4    4
 -0.008007844987768556    9    7    5    3
 0.003769683713264797    9    7    5    4
 -0.001522666019249825    9    7    5    5
 0.01020376590474885    9    7    7    3
 -0.002284314922183115    9    7    7    4
 0.0009145516357135536    9    7    7    5
 0.002460544814847418    9    7    9    3
 0.009449166458200264    9    7    9    4
 -0.003851014211394279    9    7    9    5
 0.02982618855918819    9    7    9    7
 6.521977173945656e-05    9    8    3    3
 0.008723171928866971    9    8    4    3
 -0.003908977985625501    9    8    4    4
 0.02144556608650944    9    8    5    3
 -0.004017857987446262    9    8    5    4
 0.003843758213885952    9    8    5    5
 0.01020376590474883    9    8    8    3
 -0.002284314922183161    9    8    8    4
 0.0009145516357135523    9    8    8    5
 1.478418826543509e-05    9    8    9    3
 0.003958092542945968    9    8    9    4
 0.009721348818258875    9    8    9    5
 0.02982618855918817    9    8    9    8
 1.014296987872667    9    9    1    1
 -0.01841919884057891    9    9    2    1
 0.6129943252528147    9    9    2    2
 0.5630998102286073    9    9    3    3
 -0.01007715101639646    9    9    4    3
 0.520342332343347    9    9    4    4
 0.004034502798138689    9    9    5    3
 -0.0009032032909623566    9    9    5    4
 0.5184479704492232    9    9    5    5
 -0.0171036183193948    9    9    6    1
 0.1526998580722036    9    9    6    2
 0.5292763265175537    9    9    6    6
 0.03951847493158614    9    9    7    3
 0.151761774688885    9    9    7    4
 -0.06185061440695872    9    9    7    5
 0.5891110409616455    9    9    7    7
 0.0002374468328423557    9    9    8    3
 0.06357038489665141    9    9    8    4
 0.1561332584789346    9    9    8    5
 0.5891110409616456    9    9    8    8
 0.1842888253674869    9    9    9    3
 -0.04125670048767337    9    9    9    4
 0.01651759245134469    9    9    9    5
 0.6487634180800221    9    9    9    9
 0  0  0  0  0
 4.125226790223331    1    1    1    1
 -0.4221109766578525    2    1    1    1
 -0.3784045867415137    1    1    2    1
 0.06246939108976648    2    1    2    1
 0.9911457104430218    2    2    1    1
 0.9339648140393519    1    1    2    2
 -0.0166174057123103    2    2    2    1
 -0.01608770474454663    2    1    2    2
 0.6775656833099029    2    2    2    2
 0.01833571823099028    3    1    3    1
 0.02056666457667764    3    2    3    1
 0.02401482120933392    3    1    3    2
 0.1158850543805924    3    2    3    2
 0.9506319032583588    3    3    1    1
 0.7366168614270656    1    1    3    3
 -0.01042183647994902    3    3    2    1
 -0.006014178095353454    2    1    3    3
 0.6574352943546493    3    3    2    2
 0.5850279473771809    2    2    3    3
 0.6032070418655335    3    3    3    3
 0.007247018897577512    4    1    3    1
 -0.007076247379403288    3    1    4    1
 0.009491630539557479    4    1    3    2
 -0.007937229645458043    3    2    4    1
 0.01764716157061726    4    1    4    1
 0.008128779302215049    4    2    3    1
 -0.00926796613629079    3    1    4    2
 0.04580246971855839    4    2    3    2
 -0.04472316284762116    3    2    4    2
 0.01979432974378332    4    2    4    1
 0.02311299860914766    4    1    4    2
 0.1115332517936295    4    2    4    2
 0.02048100194812403    4    3    3    3
 -0.01999837980433755    3    3    4    3
 0.02098448234368601    4    3    4    3
 0.9506319032583589    4    4    1    1
 0.7366168614270657    1    1    4    4
 -0.01042183647994903    4    4    2    1
 -0.006014178095353452    2    1    4    4
 0.6574352943546493    4    4    2    2
 0.5850279473771809    2    2    4    4
 0.5594828798522455    4    4    3    3
 0.5591058711422765    3    3    4    4
 0.01971188398258613    4    4    4    3
 -0.01924738562797234    4    3    4    4
 0.5993882192988567    4    4    4    4
 0.0003554323448516653    5    1    3    1
 0.001603851015244417    3    1    5    1
 0.0004655200361445595    5    1    3    2
 0.001798995024135158    3    2    5    1
 0.005229587902110386    5    1    4    1
 -0.004990248861386123    4    1    5    1
 0.006849342735612803    5    1    4    2
 -0.005597423192990074    4    2    5    1
 0.0190097147880292    5    1    5    1
 0.0003986785641105161    5    2    3    1
 0.002100610125672898    3    1    5    2
 0.002246396682849338    5    2    3    2
 0.01013662839810827    3    2    5    2
 0.005865883130510278    5    2    4    1
 -0.006535873462198028    4    1    5    2
 0.03305194106876388    5    2    4    2
 -0.03153927505806726    4    2    5    2
 0.02132266774709211    5    2    5    1
 0.02489757402049129    5    1    5    2
 0.1201448344819672    5    2    5    2
 0.00100449724917464    5    3    3    3
 0.004532688024133836    3    3    5    3
 0.007195910743538734    5    3    4    3
 -0.006155789650122076    4    3    5    3
 -0.005703800842107702    5    3    4    4
 -0.005574109252995105    4    4    5    3
 0.02690587459981045    5    3    5    3
 0.0003970180199993226    5    4    3    3
 -0.00174928635728163    3    3    5    4
 0.003404113318382184    5    4    4    3
 0.004902615967761443    4    3    5    4
 0.01422447374017404    5    4    4    4
 -0.0135734717944172    4    4    5    4
 0.01048023615740828    5    4    5    3
 -0.009720355683848105    5    3    5    4
 0.02384201028126852    5    4    5    4
 0.9506319032583588    5    5    1    1
 0.7366168614270663    1    1    5    5
 -0.01042183647994903    5    5    2    1
 -0.006014178095353501    2    1    5    5
 0.6574352943546492    5    5    2    2
 0.5850279473771813    2    2    5    5
 0.5514074297672606    5    5    3    3
 0.5517844384772304    3    3    5    5
 0.0002864958217511464    5    5    4    3
 -0.0012336163201517    4    3    5    5
 0.5556032610439069    5    5    4    4