 &FCI NORB=   9,NELEC= 7,MS2=3,
  ORBSYM=1,1,1,1,1,1,1,1,1
  ISYM=1, UHF=TRUE
 &END
 4.118000736791725    1    1    1    1
 4.13247334117247    2    2    2    2
 4.125226790223331    1    1    2    2
 4.125226790223332    2    2    1    1
 -0.4209229204939736    3    1    1    1
 -0.3794820050069865    4    2    2    2
 -0.4221109766578525    3    1    2    2
 -0.3784045867415137    4    2    1    1
 0.06888654263025916    3    1    3    1
 0.05666599100935402    4    2    4    2
 0.06246939108976648    3    1    4    2
 0.06246939108976653    4    2    3    1
 0.990828066921179    3    3    1    1
 0.934232859778399    4    4    2    2
 0.9911457104430218    3    3    2    2
 0.9339648140393519    4    4    1    1
 -0.01904002882108883    3    3    3    1
 -0.01401248048370355    4    4    4    2
 -0.0166174057123103    3    3    4    2
 -0.01608770474454663    4    4    3    1
 0.6990903324446496    3    3    3    3
 0.6577721481355276    4    4    4    4
 0.6775656833099029    3    3    4    4
 0.6775656833099029    4    4    3    3
 0.02877068412215424    5    1    5    1
 0.01351792925657742    6    2    6    2
 0.01833571823099028    5    1    6    2
 0.01833571823099027    6    2    5    1
 0.03189972085796181    5    3    5    1
 0.01789260959207023    6    4    6    2
 0.02056666457667764    5    3    6    2
 0.02401482120933392    6    4    5    1
 0.1391089557000916    5    3    5    3
 0.1142061286433494    6    4    6    4
 0.1158850543805924    5    3    6    4
 0.1158850543805924    6    4    5    3
 0.9504297507720305    5    5    1    1
 0.7367147860172447    6    6    2    2
 0.9506319032583588    5    5    2    2
 0.7366168614270656    6    6    1    1
 -0.01236968976156965    5    5    3    1
 -0.005019773087046733    6    6    4    2
 -0.01042183647994902    5    5    4    2
 -0.006014178095353454    6    6    3    1
 0.6778193208990597    5    5    3    3
 0.5715375788467911    6    6    4    4
 0.6574352943546493    5    5    4    4
 0.5850279473771809    6    6    3    3
 0.708502526474338    5    5    5    5
 0.547776775681091    6    6    6    6
 0.6032070418655335    5    5    6    6
 0.6032070418655336    6    6    5    5
 0.007247018897577512    7    1    6    2
 -0.007076247379403288    8    2    5    1
 0.009491630539557479    7    1    6    4
 -0.007937229645458043    8    2    5    3
 0.02877068412215424    7    1    7    1
 0.01351792925657743    8    2    8    2
 0.01764716157061726    7    1    8    2
 0.01764716157061725    8    2    7    1
 0.008128779302215049    7    3    6    2
 -0.00926796613629079    8    4    5    1
 0.04580246971855839    7    3    6    4
 -0.04472316284762116    8    4    5    3
 0.03189972085796182    7    3    7    1
 0.01789260959207022    8    4    8    2
 0.01979432974378332    7    3    8    2
 0.02311299860914766    8    4    7    1
 0.1391089557000916    7    3    7    3
 0.1142061286433494    8    4    8    4
 0.1115332517936295    7    3    8    4
 0.1115332517936295    8    4    7    3
 0.02048100194812403    7    5    6    6
 -0.01999837980433755    8    6    5    5
 0.03579916399559368    7    5    7    5
 0.02783879240909909    8    6    8    6
 0.02098448234368601    7    5    8    6
 0.02098448234368601    8    6    7    5
 0.9504297507720306    7    7    1    1
 0.7367147860172448    8    8    2    2
 0.9506319032583589    7    7    2    2
 0.7366168614270657    8    8    1    1
 -0.01236968976156966    7    7    3    1
 -0.005019773087046719    8    8    4    2
 -0.01042183647994903    7    7    4    2
 -0.006014178095353452    8    8    3    1
 0.6778193208990597    7    7    3    3
 0.5715375788467911    8    8    4    4
 0.6574352943546493    7    7    4    4
 0.5850279473771809    8    8    3    3
 0.6369041984831507    7    7    5    5
 0.4920991908628929    8    8    6    6
 0.5594828798522455    7    7    6    6
 0.5591058711422765    8    8    5    5
 0.01971188398258613    7    7    8    6
 -0.01924738562797234    8    8    7    5
 0.7085025264743381    7    7    7    7
 0.5477767756810912    8    8    8    8
 0.5993882192988567    7    7    8    8
 0.5993882192988568    8    8    7    7
 0.0003554323448516653    9    1    6    2
 0.001603851015244417   10    2    5    1
 0.0004655200361445595    9    1    6    4
 0.001798995024135158   10    2    5    3
 0.005229587902110386    9    1    8    2
 -0.004990248861386123   10    2    7    1
 0.006849342735612803    9    1    8    4
 -0.005597423192990074   10    2    7    3
 0.02877068412215424    9    1    9    1
 0.01351792925657744   10    2   10    2
 0.0190097147880292    9    1   10    2
 0.0190097147880292   10    2    9    1
 0.0003986785641105161    9    3    6    2
 0.002100610125672898   10    4    5    1
 0.002246396682849338    9    3    6    4
 0.01013662839810827   10    4    5    3
 0.005865883130510278    9    3    8    2
 -0.006535873462198028   10    4    7    1
 0.03305194106876388    9    3    8    4
 -0.03153927505806726   10    4    7    3
 0.03189972085796181    9    3    9    1
 0.01789260959207024   10    4   10    2
 0.02132266774709211    9    3   10    2
 0.02489757402049129   10    4    9    1
 0.1391089557000916    9    3    9    3
 0.1142061286433495   10    4   10    4
 0.1201448344819672    9    3   10    4
 0.1201448344819672   10    4    9    3
 0.00100449724917464    9    5    6    6
 0.004532688024133836   10    6    5    5
 0.007195910743538734    9    5    8    6
 -0.006155789650122076   10    6    7    5
 -0.005703800842107702    9    5    8    8
 -0.005574109252995105   10    6    7    7
 0.03579916399559368    9    5    9    5
 0.02783879240909911   10    6   10    6
 0.02690587459981045    9    5   10    6
 0.02690587459981045   10    6    9    5
 0.0003970180199993226    9    7    6    6
 -0.00174928635728163   10    8    5    5
 0.003404113318382184    9    7    8    6
 0.004902615967761443   10    8    7    5
 0.01422447374017404    9    7    8    8
 -0.0135734717944172   10    8    7    7
 0.01048023615740828    9    7   10    6
 -0.009720355683848105   10    8    9    5
 0.03579916399559368    9    7    9    7
 0.0278387924090991   10    8   10    8
 0.02384201028126852    9    7   10    8
 0.02384201028126852   10    8    9    7
 0.9504297507720305    9    9    1    1
 0.7367147860172454   10   10    2    2
 0.9506319032583588    9    9    2    2
 0.7366168614270663   10   10    1    1
 -0.01236968976156967    9    9    3    1
 -0.005019773087046783   10   10    4    2
 -0.01042183647994903    9    9    4    2
 -0.006014178095353501   10   10    3    1
 0.6778193208990595    9    9    3    3
 0.5715375788467916   10   10    4    4
 0.6574352943546492    9    9    4    4
 0.5850279473771813   10   10    3    3
 0.6369041984831506    9    9    5    5
 0.4920991908628932   10   10    6    6
 0.5514074297672606    9    9    6    6
 0.5517844384772304   10   10    5    5
 0.0002864958217511464    9    9    8    6
 -0.0012336163201517   10   10    7    5
 0.6369041984831507    9    9    7    7
 0.4920991908628932   10   10    8    8
 0.5556032610439069    9    9    8    8
 0.5552262523339383   10   10    7    7
 0.00104142122886109    9    9   10    6
 0.00469930359293306   10   10    9    5
 0.01532275815169858    9    9   10    8
 -0.01462149176017338   10   10    9    7
 0.7085025264743379    9    9    9    9
 0.5477767756810918   10   10   10   10
 0.6070866606738725    9    9   10   10
 0.6070866606738726   10   10    9    9
 -0.3624122252630161   12    2    2    2
 -0.3613838009347347   12    2    1    1
 0.05400566209770909   12    2    4    2
 0.05956139040791254   12    2    3    1
 -0.01294103482538434   12    2    4    4
 -0.01534896437683572   12    2    3    3
 -0.008110085780627883   11    1    6    2
 -0.009565312736923202   11    1    6    4
 -0.004665083905857699   12    2    6    6
 -0.00961919319688276   12    2    5    5
 -0.03222246813113638   11    1    7    1
 -0.01974880928903705   11    1    8    2
 -0.03233561568364746   11    1    7    3
 -0.02329242157742855   11    1    8    4
 -0.004665083905857699   12    2    8    8
 -0.00961919319688276   12    2    7    7
 0.005584550958746717   11    1   10    2
 0.006586610531702793   11    1   10    4
 -0.004665083905857704   12    2   10   10
 -0.00961919319688276   12    2    9    9
 0.0362415842834563   11    1   11    1
 0.05169632239961167   12    2   12    2
 0.3871330234890916   12    4    2    2
 0.3868756416999062   12    4    1    1
 -0.01351071854607617   12    4    4    2
 -0.01549131621917639   12    4    3    1
 0.1487129207475196   12    4    4    4
 0.1614587902034399   12    4    3    3
 -0.004607815975663915   11    3    6    2
 -0.01035305638766844   11    3    6    4
 0.1020242512730406   12    4    6    6
 0.1533469112180303   12    4    5    5
 -0.01802033762202629   11    3    7    1
 -0.01122045825455125   11    3    8    2
 -0.04000933641260588   11    3    7    3
 -0.02521065025564766   11    3    8    4
 0.1020242512730406   12    4    8    8
 0.1533469112180303   12    4    7    7
 0.003172911337890947   11    3   10    2
 0.007129045553848187   11    3   10    4
 0.1020242512730407   12    4   10   10
 0.1533469112180303   12    4    9    9
 0.01879270770224558   11    3   11    1
 -0.01232161019068604   12    4   12    2
 0.03464944811900333   11    3   11    3
 0.09447896844129661   12    4   12    4
 0.008426793717934396   12    6    6    2
 0.01123576151703948   12    6    5    1
 -0.0003190912432457652   12    6    6    4
 0.009807700118798689   12    6    5    3
 -0.002316328519137201   11    5    6    6
 0.004440828279365504   12    6    7    1
 0.003876400542771022   12    6    7    3
 -0.01059812258564813   11    5    7    5
 -0.002373270362217957   11    5    8    6
 0.002176810898306055   11    5    8    8
 0.0002178018342060748   12    6    9    1
 0.0001901192964961004   12    6    9    3
 0.0006961979282314074   11    5   10    6
 -0.0005544684392524766   11    5   10    8
 0.0001395176208311546   11    5   10   10
 -0.004693490715031214   12    6   11    1
 -0.01185467308452356   12    6   11    3
 0.01414515274194524   11    5   11    5
 0.03875992701770165   12    6   12    6
 -0.427419020632181   11    7    1    1
 -0.4276430327863093   11    7    2    2
 0.01363350984086493   11    7    3    1
 0.01161381615451356   11    7    4    2
 -0.1763303138331292   11    7    3    3
 -0.1627947010392743   11    7    4    4
 -0.004336182907532435   12    8    5    1
 -0.00378505556146269   12    8    5    3
 -0.1634067396288763   11    7    5    5
 -0.112945592711816   11    7    6    6
 0.008426793717934396   12    8    8    2
 0.01081382776296135   12    8    7    1
 -0.0003190912432457661   12    8    8    4
 0.009439393998762098   12    8    7    3
 -0.002229344011120033   11    7    8    6
 -0.1846029848001726   11    7    7    7
 -0.1174587447568263   11    7    8    8
 0.003204586903020579   12    8    9    1
 0.002797285017289792   12    8    9    3
 0.0006304119429411919   11    7   10    6
 0.001535111412066083   11    7   10    8
 -0.1634067396288763   11    7    9    9
 -0.1124641832699843   11    7   10   10
 0.01066991636432166   11    7   12    2
 -0.01142908417225661   12    8   11    1
 -0.100569855046112   11    7   12    4
 -0.02886722585467044   12    8   11    3
 0.1292521337108296   11    7   11    7
 0.03875992701770167   12    8   12    8
 0.0009828078338207889   12   10    5    1
 0.0008578932984562171   12   10    5    3
 -4.490132683279455e-05   11    9    6    6
 -0.003057924724347383   12   10    7    1
 -0.002669263550741648   12   10    7    3
 -0.0003849931161432117   11    9    8    6
 -0.001608737418097917   11    9    8    8
 0.008426793717934406   12   10   10    2
 0.01164877313091755   12   10    9    1
 -0.0003190912432457522   12   10   10    4
 0.01016821809956523   12   10    9    3
 -0.001185277456649101   11    9   10    6
 -0.01059812258564813   11    9    9    7
 -0.002696446614669809   11    9   10    8
 0.001653638744930709   11    9   10   10
 0.003231906391804788   12   10   11    1
 0.008163048792645388   12   10   11    3
 0.01414515274194524   11    9   11    9
 0.03875992701770169   12   10   12   10
 0.8001281608446981   11   11    1    1
 0.7898375596180671   12   12    2    2
 0.8003798706315534   11   11    2    2
 0.7895853393240525   12   12    1    1
 -0.01518684323813757   11   11    3    1
 -0.01318594527393521   12   12    4    2
 -0.01301713544767656   11   11    4    2
 -0.015140701975203   12   12    3    1
 0.5407124459481599   11   11    3    3
 0.5494973015730543   12   12    4    4
 0.5270966097449571   11   11    4    4
 0.563303931942341   12   12    3    3
 0.51761711213408   11   11    5    5
 0.4916302610968282   12   12    6    6
 0.4646560627534369   11   11    6    6
 0.5518777568413533   12   12    5    5
 0.01426590949547528   11   11    8    6
 0.564367769156309   11   11    7    7
 0.4916302610968282   12   12    8    8
 0.49353640526329   11   11    8    8
 0.5518777568413535   12   12    7    7
 -0.004034101367041769   11   11   10    6
 -0.009823410097665256   11   11   10    8
 0.51761711213408   11   11    9    9
 0.4916302610968285   12   12   10   10
 0.461575450926289   11   11   10   10
 0.5518777568413533   12   12    9    9
 -0.01215393641607672   12   12   12    2
 -0.01214950902836975   11   11   12    2
 0.1030512315201471   12   12   12    4
 0.1013771981272139   11   11   12    4
 -0.1205171181973057   11   11   11    7
 -0.1152743179017902   12   12   11    7
 0.4907369043383968   11   11   11   11
 0.4835412980257816   12   12   12   12
 0.4690288307730279   11   11   12   12
 0.4690288307730288   12   12   11   11
 0.006116485750029525   14    2    6    2
 -0.0003977617344036856   13    1    6    2
 -0.00513994408881839   14    2    5    1
 0.007260492839835946   14    2    6    4
 -0.0004691338029297236   13    1    6    4
 -0.005189696284148779   14    2    5    3
 0.02348898164442646   14    2    8    2
 -0.005852393526616356   13    1    8    2
 0.03751163016000761   14    2    7    1
 0.02788228241087182   14    2    8    4
 -0.006902513223145752   13    1    8    4
 0.03787472476155045   14    2    7    3
 -0.03222246813113636   13    1    9    1
 -0.009572950431555262   14    2   10    2
 -0.02127363261709201   13    1   10    2
 -0.004218101200662493   14    2    9    1
 -0.03233561568364744   13    1    9    3
 -0.01136344314446836   14    2   10    4
 -0.02509085039753315   13    1   10    4
 -0.004258930398652263   14    2    9    3
 -0.04217855943180408   14    2   11    1
 -0.02197497580008205   14    2   11    3
 0.003551566014768768   14    2   12    6
 -0.0002301937436565407   13    1   12    6
 0.01363898688547908   14    2   12    8
 -0.003386912965026132   13    1   12    8
 -0.005558578373801252   14    2   12   10
 -0.01231153404096008   13    1   12   10
 0.03624158428345627   13    1   13    1
 0.05063156128778878   14    2   14    2
 0.004742887243839018   13    1   14    2
 0.004742887243839017   14    2   13    1
 0.003884102119026857   14    4    6    2
 -0.0002259917988378162   13    3    6    2
 -0.003216336260651776   14    4    5    1
 0.01222789367367463   14    4    6    4
 -0.0005077689406164741   13    3    6    4
 -0.008995120775946067   14    4    5    3
 0.01491601666503669   14    4    8    2
 -0.003325088429055698   13    3    8    2
 0.0234730211447742   14    4    7    1
 0.04695846304384106   14    4    8    4
 -0.007470964157816088   13    3    8    4
 0.06564694828605776   14    4    7    3
 -0.01802033762202628   13    3    9    1
 -0.006079032728289016   14    4   10    2
 -0.01208679992850241   13    3   10    2
 -0.002639490159494792   14    4    9    1
 -0.04000933641260584   13    3    9    3
 -0.01913795352500419   14    4   10    4
 -0.02715718723732715   13    3   10    4
 -0.007381856512342851   14    4    9    3
 -0.02429641162182279   14    4   11    1
 -0.04130818320276394   14    4   11    3
 0.007978226221095622   14    4   12    6
 -0.0005814162087103985   13    3   12    6
 0.03063857530633377   14    4   12    8
 -0.008554559581322646   13    3   12    8
 -0.01248677218710338   14    4   12   10
 -0.03109609032721703   13    3   12   10
 0.01879270770224557   13    3   13    1
 0.02931579171121326   14    4   14    2
 0.002471038219652689   13    3   14    2
 0.002732078627258998   14    4   13    1
 0.03464944811900331   13    3   13    3
 0.05441972339904011   14    4   14    4
 0.004645015330486228   13    3   14    4
 0.004645015330486226   14    4   13    3
 0.09644362147679898   14    6    2    2
 0.09640029935402954   14    6    1    1
 -0.002244557003393924   14    6    4    2
 -0.002647773277253632   14    6    3    1
 0.04081858359704597   14    6    4    4
 0.04398412012776324   14    6    3    3
 0.03057676049651275   14    6    6    6
 -0.0001136050683238771   13    5    6    6
 0.03724354827707426   14    6    5    5
 0.004462847873723732   14    6    8    6
 -0.0008138319267115394   13    5    8    6
 0.01063311437577548   14    6    7    5
 0.02825252645032047   14    6    8    8
 0.0006450796006717353   13    5    8    8
 0.04921089387295227   14    6    7    7
 -0.01059812258564812   13    5    9    5
 -0.001818836683746419   14    6   10    6
 -0.003042958778370641   13    5   10    6
 -0.001293992283160449   14    6    9    5
 0.001099337676139282   13    5   10    8
 -0.0002817145564807987   14    6    9    7
 0.0282525264503205   14    6   10   10
 -0.0005314745323478571   13    5   10   10
 0.04027534105246106   14    6    9    9
 -0.002053942910484143   14    6   12    2
 0.02361438220131098   14    6   12    4
 -0.01223720207893499   14    6   11    5
 -0.03379928866567845   14    6   11    7
 0.0003242133804266227   14    6   11    9
 0.02837354016132528   14    6   12   12
 0.029744559268989   14    6   11   11
 0.01414515274194524   13    5   13    5
 0.02096082393710428   14    6   14    6
 0.001489201046655914   13    5   14    6
 0.001489201046655914   14    6   13    5
 0.3703699390748375   14    8    2    2
 0.3702035702499736   14    8    1    1
 -0.008619714065766334   14    8    4    2
 -0.01016817506812851   14    8    3    1
 0.1567545482890846   14    8    4    4
 0.1689110761555021   14    8    3    3
 0.1084974448272112   14    8    6    6
 -4.490132683279444e-05   13    7    6    6
 0.1560455230642058   14    8    5    5
 0.001162117023096117   14    8    8    6
 -0.0003849931161432106   13    7    8    6
 -0.0058211235481043   14    8    7    5
 0.1174231405746587   14    8    8    8
 -0.001608737418097913   13    7    8    8
 0.1764961133742052   14    8    7    7
 -0.001185277456649097   13    7   10    6
 4.851992958963896e-05   14    8    9    5
 -0.01059812258564812   13    7    9    7
 -0.001818836683746407   14    8   10    8
 -0.002696446614669802   13    7   10    8
 0.001989689609505007   14    8    9    7
 0.1084974448272113   14    8   10   10
 0.001653638744930705   13    7   10   10
 0.1541354642858099   14    8    9    9
 -0.00788770370679422   14    8   12    2
 0.09068569972036424   14    8   12    4
 0.00669928514517687   14    8   11    5
 -0.1154275336063863   14    8   11    7
 0.01414515274194524   13    7   11    9
 -0.002289849705871733   14    8   11    9
 0.1089621706440744   14    8   12   12
 0.1109982810569285   14    8   11   11
 0.02448361819756681   14    8   14    6
 0.0003242133804266227   13    7   14    6
 -5.583953696546441e-05   14    8   13    5
 0.01414515274194524   13    7   13    7
 0.1086091409173308   14    8   14    8
 -0.002289849705871731   13    7   14    8
 -0.002289849705871732   14    8   13    7
 -0.4274190206321808   13    9    1    1
 -0.1509445203616503   14   10    2    2
 -0.4276430327863091   13    9    2    2
 -0.150876716634018   14   10    1    1
 0.01363350984086495   13    9    3    1
 0.003512970325188208   14   10    4    2
 0.01161381615451358   13    9    4    2
 0.004144046658986057   14   10    3    1
 -0.1763303138331291   13    9    3    3
 -0.06388542268065117   14   10    4    4
 -0.1627947010392742   13    9    4    4
 -0.06883982387380161   14   10    3    3
 -0.1634067396288762   13    9    5    5
 -0.04421820737076293   14   10    6    6
 -0.1120322880119727   13    9    6    6
 -0.06338137774769464   14   10    5    5
 -3.240165907001942e-05   13    9    8    6
 0.001402584142134964   14   10    7    5
 -0.1634067396288762   13    9    7    7
 -0.04421820737076292   14   10    8    8
 -0.1125068216149771   13    9    8    8
 -0.06923110998318344   14   10    7    7
 0.001162117023096142   14   10   10    6
 -0.0001177810391774725   13    9   10    6
 -0.001707599706791574   14   10    9    5
 0.004462847873723745   14   10   10    8
 -0.001732949481110354   13    9   10    8
 0.0119992283768036   14   10    9    7
 -0.1846029848001724   13    9    9    9
 -0.04785588073825582   14   10   10   10
 -0.1183294111116766   13    9   10   10
 -0.0657330953996479   14   10    9    9
 0.003214639005938024   14   10   12    2
 0.0106699163643217   13    9   12    2
 -0.03695901854816869   14   10   12    4
 -0.1005698550461118   13    9   12    4
 -0.001614174829071513   14   10   11    5
 0.1009618282269391   13    9   11    7
 0.04393525272995192   14   10   11    7
 -0.01380940496349431   14   10   11    9
 -0.1136272528372202   13    9   11   11
 -0.04440760669323855   14   10   12   12
 -0.1152743179017902   13    9   12   12
 -0.04453925065479947   14   10   11   11
 -0.00997831523471117   14   10   14    6
 -0.02351573845761687   13    9   14    6
 0.001965204355324598   14   10   13    5
 -0.03831946528924723   14   10   14    8
 -0.0896936073228282   13    9   14    8
 -0.01380940496349431   14   10   13    7
 0.1292521337108295   13    9   13    9
 0.03020246085645511   14   10   14   10
 0.03990953553920044   13    9   14   10
 0.03990953553920044   14   10   13    9
 0.004326985729730546   14   12    6    2
 -0.003591354369834024   14   12    5    1
 0.02161798778719207   14   12    6    4
 -0.01368227277025992   14   12    5    3
 0.0002873303813266489   13   11    6    6
 0.01661681111263039   14   12    8    2
 0.02620992652192665   14   12    7    1
 0.08301899801210827   14   12    8    4
 0.09985407370925736   14   12    7    3
 0.002463629176961655   13   11    8    6
 0.01029455404553699   13   11    8    8
 -0.006772192661211958   14   12   10    2
 -0.002947249214705738   14   12    9    1
 -0.0338344490569209   14   12   10    4
 -0.01122837334467829   14   12    9    3
 0.007584769707698889   13   11   10    6
 0.02337532851111451   13   11    9    7
 0.0172549697006762   13   11   10    8
 -0.01058188442686365   13   11   10   10
 -0.02696758329560717   14   12   11    1
 -0.02541153741022126   14   12   11    3
 1.487089320656523e-05   14   12   12    6
 5.710830562528251e-05   14   12   12    8
 -0.003444932680042715   13   11   11    9
 -2.327452876657284e-05   14   12   12   10
 0.03255391288606943   14   12   14    2
 0.003032446070537375   14   12   13    1
 0.04454888573971719   14   12   14    4
 0.002857472096081053   14   12   13    3
 -7.284658177076729e-05   13   11   14    6
 -0.003444932680042709   13   11   13    7
 0.0005144998137401296   13   11   14    8
 0.003102795901128803   13   11   14   10
 0.02274618496305394   13   11   13   11
 0.08601438426490851   14   12   14   12
 0.8001281608446978   13   13    1    1
 1.014296987872666   14   14    2    2
 0.8003798706315531   13   13    2    2
 1.013941050189661   14   14    1    1
 -0.01518684323813757   13   13    3    1
 -0.01841919884057875   14   14    4    2
 -0.01301713544767658   13   13    4    2
 -0.02154235490435368   14   14    3    1
 0.5407124459481598   13   13    3    3
 0.6129943252528143   14   14    4    4
 0.5270966097449569   13   13    4    4
 0.6335038194700375   14   14    3    3
 0.5176171121340799   13   13    5    5
 0.5207038456264208   14   14    6    6
 0.4588116878499829   13   13    6    6
 0.604196706144237   14   14    5    5
 0.01005185193617591   14   14    8    6
 0.0002073431168499434   13   13    8    6
 -0.007760419083406889   14   14    7    5
 0.5176171121340799   13   13    7    7
 0.5566882290468341   14   14    8    8
 0.4618483001445661   13   13    8    8
 0.6597693716218465   14   14    7    7
 -0.004096639087509326   14   14   10    6
 0.0007536986830240944   13   13   10    6
 0.0008726422422521585   14   14    9    5
 -0.01573221687467867   14   14   10    8
 0.01108940582271575   13   13   10    8
 -0.006368597106838945   14   14    9    7
 0.5643677691563087   13   13    9    9
 0.5244980383479219   14   14   10   10
 0.4991079309484666   13   13   10   10
 0.6038494876139822   14   14    9    9
 -0.0171036183193948   14   14   12    2
 -0.01214950902836977   13   13   12    2
 0.1526998580722035   14   14   12    4
 0.1013771981272138   13   13   12    4
 0.002830717940738908   14   14   11    5
 -0.1136272528372202   13   13   11    7
 -0.185662661427447   14   14   11    7
 0.002323032028800249   14   14   11    9
 0.4452445344122887   13   13   11   11
 0.5292763265175532   14   14   12   12
 0.4690288307730282   13   13   12   12
 0.5514433026302372   14   14   11   11
 0.04443956456128089   14   14   14    6
 0.02743397763864539   13   13   14    6
 -0.0003183080738863098   14   14   13    5
 0.1706601076052853   14   14   14    8
 0.105216198396332   13   13   14    8
 0.002323032028800247   14   14   13    7
 -0.1205171181973056   13   13   13    9
 -0.06955264282974723   14   14   14   10
 -0.04363472371597859   13   13   14   10
 -0.1652651265515845   14   14   13    9
 -0.005327693777395965   14   14   13   11
 0.4907369043383966   13   13   13   13
 0.6487634180800216   14   14   14   14
 0.50466313848051   13   13   14   14
 0.50466313848051   14   14   13   13
 -0.03222246813113637   15    1    5    1
 3.675091642541288e-05   16    2    6    2
 -0.02051936800557559   15    1    6    2
 -0.002235561014307553   16    2    5    1
 -0.03233561568364745   15    1    5    3
 4.36246852308657e-05   16    2    6    4
 -0.02420124490004482   15    1    6    4
 -0.002257200173476385   16    2    5    3
 0.009839128509321103   16    2    8    2
 0.007918976625145482   15    1    8    2
 0.003947055335006211   16    2    7    1
 0.01167940628191715   16    2    8    4
 0.009339912058246665   15    1    8    4
 0.003985260938922075   16    2    7    3
 0.02416557957373957   16    2   10    2
 -0.001794857926661037   15    1   10    2
 0.03782534628222335   16    2    9    1
 0.02868542895972168   16    2   10    4
 -0.00211691686762026   15    1   10    4
 0.0381914775054728   16    2    9    3
 -0.004438119786264844   16    2   11    1
 -0.002312254762012952   16    2   11    3
 2.133959124934977e-05   16    2   12    6
 -0.0118750239908093   15    1   12    6
 0.005713135917708724   16    2   12    8
 0.004582891509168723   15    1   12    8
 0.01403185663284989   16    2   12   10
 -0.001038725019864284   15    1   12   10
 0.005779419244155092   15    1   14    2
 -0.04253130587468458   16    2   13    1
 0.00332915943035255   15    1   14    4
 -0.0221587562480226   16    2   13    3
 0.00369517053134503   15    1   14   12
 0.03624158428345629   15    1   15    1
 0.05063156128778875   16    2   16    2
 0.002513693558589303   15    1   16    2
 0.002513693558589303   16    2   15    1
 -0.01802033762202629   15    3    5    1
 2.333763507311747e-05   16    4    6    2
 -0.01165825791047283   15    3    6    2
 -0.001398909371185362   16    4    5    1
 -0.04000933641260586   15    3    5    3
 7.347132272118303e-05   16    4    6    4
 -0.02619431899333088   15    3    6    4
 -0.003912326861577942   16    4    5    3
 0.006248061624642413   16    4    8    2
 0.004499235642046376   15    3    8    2
 0.002469882352299658   16    4    7    1
 0.01967008870298082   16    4    8    4
 0.01010909301706697   15    3    8    4
 0.00690751471887798   16    4    7    3
 0.0153456711363091   16    4   10    2
 -0.001019764186498585   15    3   10    2
 0.02366932999988969   16    4    9    1
 0.04831109719972525   16    4   10    4
 -0.002291253856643762   15    3   10    4
 0.06619596484342283   16    4    9    3
 -0.002556521289646957   16    4   11    1
 -0.004346536905871707   16    4   11    3
 4.793718763640033e-05   16    4   12    6
 -0.02999356679903062   15    3   12    6
 0.01283396974568545   16    4   12    8
 0.01157532504518287   15    3   12    8
 0.03152111661541122   16    4   12   10
 -0.002623579395985755   15    3   12   10
 0.003011070073035076   15    3   14    2
 -0.02449960663108373   16    4   13    1
 0.005660157960803233   15    3   14    4
 -0.04165365054168982   16    4   13    3
 0.003481956954211657   15    3   14   12
 0.01879270770224557   15    3   15    1
 0.02931579171121322   16    4   16    2
 0.001309631145846353   15    3   16    2
 0.001447980543037669   16    4   15    1
 0.03464944811900332   15    3   15    3
 0.05441972339904009   16    4   16    4
 0.002461822201436274   15    3   16    4
 0.002461822201436275   16    4   15    3
 -0.427419020632181   15    5    1    1
 0.0005794816856460786   16    6    2    2
 -0.4276430327863093   15    5    2    2
 0.0005792213845878666   16    6    1    1
 0.01363350984086494   15    5    3    1
 -1.348642508378345e-05   16    6    4    2
 0.01161381615451357   15    5    4    2
 -1.590915084291939e-05   16    6    3    1
 -0.1763303138331292   15    5    3    3
 0.0002452585382661838   16    6    4    4
 -0.1627947010392743   15    5    4    4
 0.0002642786706161058   16    6    3    3
 -0.1846029848001725   15    5    5    5
 0.0001837205244140707   16    6    6    6
 -0.1178906400148377   15    5    6    6
 -0.001097671504637913   16    6    5    5
 0.001869409854025635   16    6    8    6
 0.002261745670190114   15    5    8    6
 0.0009180984032295087   16    6    7    5
 -0.1634067396288763   15    5    7    7
 0.0001697553596649762   16    6    8    8
 -0.112902954366823   15    5    8    8