 &FCI NORB=   9,NELEC= 7,MS2=3,
  ORBSYM=1,1,1,1,1,1,1,1,1
  ISYM=1, UHF=TRUE
 &END
 4.118000736791725    1    1    1    1
 4.132473341172471   10   10   10   10
 4.125226790223333    1    1   10   10
 4.125226790223333   10   10    1    1
 -0.4209229204939736    2    1    1    1
 -0.3794820050069869   11   10   10   10
 -0.4221109766578526    2    1   10   10
 -0.3784045867415139   11   10    1    1
 0.06888654263025917    2    1    2    1
 0.05666599100935413   11   10   11   10
 0.06246939108976653    2    1   11   10
 0.06246939108976659   11   10    2    1
 0.9908280669211792    2    2    1    1
 0.9342328597783996   11   11   10   10
 0.9911457104430225    2    2   10   10
 0.9339648140393522   11   11    1    1
 -0.01904002882108878    2    2    2    1
 -0.01401248048370361   11   11   11   10
 -0.01661740571231028    2    2   11   10
 -0.01608770474454668   11   11    2    1
 0.6990903324446502    2    2    2    2
 0.6577721481355274   11   11   11   11
 0.6775656833099032    2    2   11   11
 0.6775656833099031   11   11    2    2
 0.02877068412215421    3    1    3    1
 0.0135179292565774   12   10   12   10
 0.01824456484467631    3    1   12   10
 0.01824456484467631   12   10    3    1
 0.03189972085796179    3    2    3    1
 0.01789260959207021   12   11   12   10
 0.02046442036143992    3    2   12   10
 0.02389543497927858   12   11    3    1
 0.1391089557000916    3    2    3    2
 0.1142061286433493   12   11   12   11
 0.1153089484982435    3    2   12   11
 0.1153089484982435   12   11    3    2
 0.9504297507720297    3    3    1    1
 0.7367147860172448   12   12   10   10
 0.9506319032583583    3    3   10   10
 0.7366168614270654   12   12    1    1
 -0.01236968976156964    3    3    2    1
 -0.005019773087046747   12   12   11   10
 -0.010421836479949    3    3   11   10
 -0.006014178095353439   12   12    2    1
 0.6778193208990597    3    3    2    2
 0.571537578846791   12   12   11   11
 0.657435294354649    3    3   11   11
 0.5850279473771813   12   12    2    2
 0.7085025264743374    3    3    3    3
 0.5477767756810912   12   12   12   12
 0.6026931002945143    3    3   12   12
 0.6026931002945142   12   12    3    3
 0.0004547340159271137    4    1   12   10
 0.007480721658964812   13   10    3    1
 0.0005955783107440476    4    1   12   11
 0.008390917182146702   13   10    3    2
 0.02877068412215424    4    1    4    1
 0.01351792925657741   13   10   13   10
 -0.001469705237171684    4    1   13   10
 -0.001469705237171684   13   10    4    1
 0.0005100624834740072    4    2   12   10
 0.009797717814685766   13   11    3    1
 0.002874001198128829    4    2   12   11
 0.04727951342478688   13   11    3    2
 0.03189972085796183    4    2    4    1
 0.01789260959207021   13   11   13   10
 -0.001648527440196379    4    2   13   10
 -0.001924915514978084   13   11    4    1
 0.1391089557000917    4    2    4    2
 0.1142061286433493   13   11   13   11
 -0.009288802826671903    4    2   13   11
 -0.009288802826671903   13   11    4    2
 0.001278747596387753    4    3   12   12
 0.02103637402437109   13   12    3    3
 0.03579916399559366    4    3    4    3
 0.02783879240909909   13   12   13   12
 -0.001804303972230235    4    3   13   12
 -0.001804303972230235   13   12    4    3
 0.9504297507720303    4    4    1    1
 0.7367147860172446   13   13   10   10
 0.9506319032583589    4    4   10   10
 0.7366168614270652   13   13    1    1
 -0.01236968976156965    4    4    2    1
 -0.005019773087046694   13   13   11   10
 -0.01042183647994903    4    4   11   10
 -0.006014178095353401   13   13    2    1
 0.6778193208990598    4    4    2    2
 0.5715375788467908   13   13   11   11
 0.6574352943546491    4    4   11   11
 0.5850279473771811   13   13    2    2
 0.6369041984831505    4    4    3    3
 0.4920991908628928   13   13   12   12
 0.5514198298516946    4    4   12   12
 0.5600133901856961   13   13    3    3
 -0.0001030105160321319    4    4   13   12
 -0.001694601616313259   13   13    4    3
 0.7085025264743379    4    4    4    4
 0.5477767756810907   13   13   13   13
 0.5517208889895885    4    4   13   13
 0.5517208889895886   13   13    4    4
 -0.007468148947566636    5    1   12   10
 0.0001372413544682853   14   10    3    1
 -0.00978125097043454    5    1   12   11
 0.00015393980578451   14   10    3    2
 0.01818578972925854    5    1   13   10
 0.01965902748333371   14   10    4    1
 0.02381845550836097    5    1   13   11
 0.02205098371712789   14   10    4    2
 0.02877068412215419    5    1    5    1
 0.01351792925657741   14   10   14   10
 0.001532312409410953    5    1   14   10
 0.001532312409410953   14   10    5    1
 -0.008376814721861909    5    2   12   10
 0.0001797489767546833   14   11    3    1
 -0.04720005161556096    5    2   12   11
 0.0008673901739470859   14   11    3    2
 0.02039849395108476    5    2   13   10
 0.02574799766303692   14   11    4    1
 0.1149374791420607    5    2   13   11
 0.1242486081142537   14   11    4    2
 0.03189972085796177    5    2    5    1
 0.01789260959207021   14   11   14   10
 0.001718752161983554    5    2   14   10
 0.002006913941699477   14   11    5    1
 0.1391089557000916    5    2    5    2
 0.1142061286433493   14   11   14   11
 0.009684491474815503    5    2   14   11
 0.009684491474815503   14   11    5    2
 -0.0210010185771923    5    3   12   12
 0.0003859334160289513   14   12    3    3
 0.02126446324785825    5    3   13   12
 0.02764617052151696   14   12    4    3
 0.02096860505746068    5    3   13   13
 0.001377886200939943   14   12    4    4
 0.03579916399559362    5    3    5    3
 0.0278387924090991   14   12   14   12
 0.002075502999921007    5    3   14   12
 0.002075502999921007   14   12    5    3
 -0.0005234368480404267    5    4   12   12
 0.0001582422211099928   14   13    3    3
 0.001483190812011442    5    4   13   12
 0.01131809528613036   14   13    4    3
 -0.004119611726524139    5    4   13   13
 -0.004453343041908308   14   13    4    4
 -0.01126089232806433    5    4   14   12
 0.001075739576529416   14   13    5    3
 0.03579916399559364    5    4    5    4
 0.02783879240909909   14   13   14   13
 0.02737875720420727    5    4   14   13
 0.02737875720420727   14   13    5    4
 0.9504297507720293    5    5    1    1
 0.7367147860172447   14   14   10   10
 0.9506319032583579    5    5   10   10
 0.7366168614270653   14   14    1    1
 -0.0123696897615696    5    5    2    1
 -0.005019773087046736   14   14   11   10
 -0.01042183647994898    5    5   11   10
 -0.006014178095353442   14   14    2    1
 0.6778193208990594    5    5    2    2
 0.5715375788467908   14   14   11   11
 0.6574352943546486    5    5   11   11
 0.5850279473771813   14   14    2    2
 0.6369041984831498    5    5    3    3
 0.4920991908628929   14   14   12   12
 0.5599844213388306    5    5   12   12
 0.5513908610048289   14   14    3    3
 -0.02093336350833901    5    5   13   12
 0.0004158540199255076   14   14    4    3
 0.6369041984831502    5    5    4    4
 0.4920991908628927   14   14   13   13
 0.6023630723097541    5    5   13   13
 0.6109566326437564   14   14    4    4
 -0.001763819616968931    5    5   14   12
 3.241351973160913e-05   14   14    5    3
 0.004295100820798432    5    5   14   13
 0.004643048574564572   14   14    5    4
 0.7085025264743368    5    5    5    5
 0.547776775681091   14   14   14   14
 0.5517498578364538    5    5   14   14
 0.5517498578364538   14   14    5    5
 -0.3624122252630153   15   10   10   10
 -0.3613838009347337   15   10    1    1
 0.054005662097709   15   10   11   10
 0.0595613904079124   15   10    2    1
 -0.01294103482538436   15   10   11   11
 -0.01534896437683572   15   10    2    2
 -0.03222246813113636    6    1    3    1
 -0.02041735891843936    6    1   12   10
 -0.03233561568364747    6    1    3    2
 -0.02408093189142087    6    1   12   11
 -0.004665083905857686   15   10   12   12
 -0.00961919319688271   15   10    3    3
 -0.008371620829564245    6    1   13   10
 -0.00987377612466178    6    1   13   11
 -0.004665083905857688   15   10   13   13
 -0.00961919319688272   15   10    4    4
 -0.0001535857948099752    6    1   14   10
 -0.0001811443428644713    6    1   14   11
 -0.00466508390585769   15   10   14   14
 -0.009619193196882701   15   10    5    5
 0.03624158428345631    6    1    6    1
 0.05169632239961138   15   10   15   10
 0.3871330234890907   15   11   10   10
 0.3868756416999051   15   11    1    1
 -0.0135107185460762   15   11   11   10
 -0.01549131621917641   15   11    2    1
 0.1487129207475192   15   11   11   11
 0.1614587902034394   15   11    2    2
 -0.01802033762202629    6    2    3    1
 -0.01160030055785247    6    2   12   10
 -0.0400093364126059    6    2    3    2
 -0.02606409770347745    6    2   12   11
 0.10202425127304   15   11   12   12
 0.1533469112180297   15   11    3    3
 -0.004756409394930034    6    2   13   10
 -0.01068692303004819    6    2   13   11
 0.10202425127304   15   11   13   13
 0.1533469112180297   15   11    4    4
 -8.726110895779629e-05    6    2   14   10
 -0.0001960623397856893    6    2   14   11
 0.10202425127304   15   11   14   14
 0.1533469112180295   15   11    5    5
 0.0187927077022456    6    2    6    1
 -0.01232161019068605   15   11   15   10
 0.03464944811900337    6    2    6    2
 0.09447896844129614   15   11   15   11
 -0.427419020632181    6    3    1    1
 -0.4276430327863093    6    3   10   10
 0.01363350984086497    6    3    2    1
 0.01161381615451361    6    3   11   10
 -0.1763303138331293    6    3    2    2
 -0.1627947010392745    6    3   11   11
 0.008426793717934341   15   12   12   10
 0.01117990454447953   15   12    3    1
 -0.0003190912432460211   15   12   12   11
 0.009758942548109399   15   12    3    2
 -0.1846029848001723    6    3    3    3
 -0.1178325150499977    6    3   12   12
 0.0002786519127463007   15   12    4    1
 0.0002432353511242416   15   12    4    2
 -0.002379139126850652    6    3   13   12
 -0.1634067396288763    6    3    4    4
 -0.113005591544792    6    3   13   13
 -0.004576332352597232   15   12    5    1
 -0.003994682095215536   15   12    5    2
 -4.364769752476252e-05    6    3   14   12
 -1.789663272418716e-05    6    3   14   13
 -0.1634067396288761    6    3    5    5
 -0.1120304141438366    6    3   14   14
 0.01066991636432171    6    3   15   10
 -0.01181598901679378   15   12    6    1
 -0.1005698550461116    6    3   15   11
 -0.02984445809508329   15   12    6    2
 0.1292521337108296    6    3    6    3
 0.03875992701770166   15   12   15   12
 0.004584036658756001   15   13    3    1
 0.004001407186729226   15   13    3    2
 -0.0001446218077510815    6    4   12   12
 0.008426793717934348   15   13   13   10
 -0.0009006059832057672   15   13    4    1
 -0.0003190912432459846   15   13   13   11
 -0.0007861392745905498   15   13    4    2
 -0.01059812258564814    6    4    4    3
 0.0002040603657308988    6    4   13   12
 0.0001916534192216091    6    4   13   13
 0.01114388832893503   15   13    5    1
 0.009727503981089415   15   13    5    2
 -0.003126683615680509    6    4   14   12
 -0.001280036345876985    6    4   14   13
 -4.703161147052848e-05    6    4   14   14
 -0.004844846983884739   15   13    6    1
 -0.01223696404779439   15   13    6    2
 0.01414515274194525    6    4    6    4
 0.03875992701770163   15   13   15   13
 8.409875793547495e-05   15   14    3    1
 7.340983492251017e-05   15   14    3    2
 0.002375140551448282    6    5   12   12
 0.01204665896786808   15   14    4    1
 0.01051553278441386   15   14    4    2
 -0.002404935207267547    6    5   13   12
 -0.002371474697582816    6    5   13   13
 0.008426793717934348   15   14   14   10
 0.000938970406550129   15   14    5    1
 -0.000319091243245982   15   14   14   11
 0.0008196275930121906   15   14    5    2
 -0.0105981225856481    6    5    5    3
 -0.0002347320117662609    6    5   14   12
 -0.0001216623223117218    6    5   14   13
 -3.665853865456035e-06    6    5   14   14
 -8.888358537750215e-05   15   14    6    1
 -0.000224499399531383   15   14    6    2
 0.01414515274194524    6    5    6    5
 0.03875992701770163   15   14   15   14
 0.8001281608446983    6    6    1    1
 0.7898375596180652   15   15   10   10
 0.800379870631554    6    6   10   10
 0.7895853393240503   15   15    1    1
 -0.01518684323813759    6    6    2    1
 -0.01318594527393522   15   15   11   10
 -0.01301713544767664    6    6   11   10
 -0.01514070197520299   15   15    2    1
 0.5407124459481604    6    6    2    2
 0.5494973015730533   15   15   11   11
 0.527096609744957    6    6   11   11
 0.5633039319423401   15   15    2    2
 0.5643677691563088    6    6    3    3
 0.4916302610968276   15   15   12   12
 0.4959282178987044    6    6   12   12
 0.5518777568413522   15   15    3    3
 0.01522447109620585    6    6   13   12
 0.51761711213408    6    6    4    4
 0.4916302610968274   15   15   13   13
 0.4650400043599374    6    6   13   13
 0.5518777568413524   15   15    4    4
 0.0002793082177843815    6    6   14   12
 0.0001145232595074312    6    6   14   13
 0.5176171121340797    6    6    5    5
 0.4916302610968274   15   15   14   14
 0.458799696684374    6    6   14   14
 0.5518777568413521   15   15    5    5
 -0.01215393641607675   15   15   15   10
 -0.01214950902836983    6    6   15   10
 0.1030512315201461   15   15   15   11
 0.1013771981272137    6    6   15   11
 -0.1205171181973056    6    6    6    3
 -0.1152743179017897   15   15    6    3
 0.4907369043383966    6    6    6    6
 0.4835412980257797   15   15   15   15
 0.4690288307730279    6    6   15   15
 0.4690288307730286   15   15    6    6
 0.01008269305690614   16   10   12   10
 -0.0005088895073491632    7    1   12   10
 0.02693820521338049   16   10    3    1
 0.01196852632993994   16   10   12   11
 -0.0006002017016836863    7    1   12   11
 0.02719895412902374   16   10    3    2
 -0.03222246813113636    7    1    4    1
 0.02401425099401101   16   10   13   10
 0.001644736368727388    7    1   13   10
 -0.03233561568364746    7    1    4    2
 0.02850579638727985   16   10   13   11
 0.001939858364291051    7    1   13   11
 0.001562077624315858   16   10   14   10
 -0.02200027369969364    7    1   14   10
 0.02693820521338047   16   10    5    1
 0.001854243412004756   16   10   14   11
 -0.02594787575960561    7    1   14   11
 0.02719895412902373   16   10    5    2
 -0.03028966442492976   16   10    6    1
 -0.01578087662777174   16   10    6    2
 0.005854562809711411   16   10   15   12
 -0.0002945059081157068    7    1   15   12
 0.01394398698632535   16   10   15   13
 0.0009518462669945359    7    1   15   13
 0.0009070276674680598   16   10   15   14
 -0.01273205772795942    7    1   15   14
 0.03624158428345627    7    1    7    1
 0.05063156128778877   16   10   16   10
 0.006402730435142044   16   11   12   10
 -0.0002891300123375111    7    2   12   10
 0.01685666706242181   16   11    3    1
 0.02015701559405279   16   11   12   11
 -0.0006496308309418158    7    2   12   11
 0.04714300490324652   16   11    3    2
 -0.01802033762202628    7    2    4    1
 0.01524957418109425   16   11   13   10
 0.0009344713139385289    7    2   13   10
 -0.04000933641260584    7    2    4    2
 0.04800856567127385   16   11   13   11
 0.002099613842427863    7    2   13   11
 0.0009919534285942515   16   11   14   10
 -0.01249964739763564    7    2   14   10
 0.01685666706242178   16   11    5    1
 0.003122858432240831   16   11   14   11
 -0.02808479223501301    7    2   14   11
 0.0471430049032464   16   11    5    2
 -0.01744796798821112   16   11    6    1
 -0.02966462164831041   16   11    6    2
 0.01315167065099083   16   11   15   12
 -0.0007438538763891482    7    2   15   12
 0.031323726530298   16   11   15   13
 0.002404143740139334    7    2   15   13
 0.002037543970676841   16   11   15   14
 -0.03215823599583652    7    2   15   14
 0.01879270770224557    7    2    7    1
 0.0293157917112133   16   11   16   10
 0.03464944811900332    7    2    7    2
 0.05441972339904026   16   11   16   11
 0.158982048252514   16   12   10   10
 0.1589106340966883   16   12    1    1
 -0.003700029761998668   16   12   11   10
 -0.004364709790862827   16   12    2    1
 0.06728720808753531   16   12   11   11
 0.07250542235370794   16   12    2    2
 0.05040412147766143   16   12   12   12
 -0.0001446218077510802    7    3   12   12
 0.08253856341667984   16   12    3    3
 -0.0105981225856481    7    3    4    3
 0.004562647738843957   16   12   13   12
 0.000204060365730897    7    3   13   12
 0.000200218234642336   16   12    4    3
 0.04657274845761389   16   12   13   13
 0.0001916534192216074    7    3   13   13
 0.06647249209992921   16   12    4    4
 0.000296790848994662   16   12   14   12
 -0.003126683615680483    7    3   14   12
 0.004744828605557245   16   12    5    3
 -0.001280036345876973    7    3   14   13
 0.000200218234642336   16   12    5    4
 0.04657274845761394   16   12   14   14
 -4.70316114705281e-05    7    3   14   14
 0.05989607799429304   16   12    5    5
 -0.003385812829322791   16   12   15   10
 0.0389270207100763   16   12   15   11
 -0.05734715201934231   16   12    6    3
 0.01414515274194524    7    3    6    4
 -0.0002304227068964638   16   12    6    4
 -0.005460622769975716   16   12    6    5
 0.04677223295796329   16   12   15   15
 0.04939871839708418   16   12    6    6
 0.01414515274194523    7    3    7    3
 0.0319099095372769   16   12   16   12
 -0.0002304227068964636    7    3   16   12
 -0.0002304227068964637   16   12    7    3
 -0.4274190206321808    7    4    1    1
 0.3786522894954943   16   13   10   10
 -0.4276430327863091    7    4   10   10
 0.37848220026905   16   13    1    1
 0.01363350984086493    7    4    2    1
 -0.00881247131976181   16   13   11   10
 0.01161381615451359    7    4   11   10
 -0.01039555958335992   16   13    2    1
 -0.1763303138331291    7    4    2    2
 0.1602599518383173   16   13   11   11
 -0.1627947010392743    7    4   11   11
 0.1726883285052601   16   13    2    2
 -0.1634067396288761    7    4    3    3
 0.1109237050686593   16   13   12   12
 -0.1120336904174451    7    4   12   12
 0.1649070040251865   16   13    3    3
 0.001915686510023672   16   13   13   12
 1.165012320499782e-05    7    4   13   12
 -0.0006471074908068376   16   13    4    3
 -0.1846029848001724    7    4    4    4
 0.1200490005463473   16   13   13   13
 -0.1120677391358046    7    4   13   13
 0.158319518453627   16   13    4    4
 -0.0001558340315306222    7    4   14   12
 0.01130089990980832   16   13    5    3
 0.0002967908489946817   16   13   14   13
 0.0005036572683114258    7    4   14   13
 -0.0006471074908068355   16   13    5    4
 -0.163406739628876    7    4    5    5
 0.1109237050686593   16   13   14   14
 -0.1187670911853764    7    4   14   14
 0.1743338327016838   16   13    5    5
 -0.008064091472705152   16   13   15   10
 0.01066991636432166    7    4   15   10
 0.09271364708861607   16   13   15   11
 -0.1005698550461116    7    4   15   11
 0.1009618282269391    7    4    6    3
 -0.1001290628022015   16   13    6    3
 0.0007447286704482839   16   13    6    4
 -0.01300572823567102   16   13    6    5
 -0.1136272528372202    7    4    6    6
 0.1113988232571995   16   13   15   15
 -0.1152743179017897    7    4   15   15
 0.1094631260602068   16   13    6    6
 0.04126245212849073   16   13   16   12
 -0.03885738934307841    7    4   16   12
 0.0007447286704482833   16   13    7    3
 0.1292521337108295    7    4    7    4
 0.112861350541119   16   13   16   13
 -0.09254780398353432    7    4   16   13
 -0.09254780398353434   16   13    7    4
 0.02463055245672222   16   14   10   10
 0.02461948850245473   16   14    1    1
 -0.0005732331300675675   16   14   11   10
 -0.000676209764837496   16   14    2    1
 0.01042458017545521   16   14   11   11
 0.01123302050960689   16   14    2    2
 0.007215358819110246   16   14   12   12
 5.919884691941951e-05    7    5   12   12
 0.0104192130167394   16   14    3    3
 -0.0001677436087299939    7    5   13   12
 0.008655819973074413   16   14    4    3
 0.007215358819110254   16   14   13   13
 0.0004659134428134703    7    5   13   13
 0.01029835897569944   16   14    4    4
 0.001915686510023745   16   14   14   12
 0.001273566894651744    7    5   14   12
 0.0007351002905794233   16   14    5    3
 -0.01059812258564809    7    5    5    4
 0.004562647738843986   16   14   14   13
 -0.003096440120032644    7    5   14   13
 0.00865581997307438   16   14    5    4
 0.00780894051709958   16   14   14   14
 -0.0005251122897328932    7    5   14   14
 0.01164770551581829   16   14    5    5
 -0.0005245525606062248   16   14   15   10
 0.006030832009791297   16   14   15   11
 -0.006159130066652584   16   14    6    3
 -0.009961617492868162   16   14    6    4
 -0.0008459958659523155   16   14    6    5
 0.007246264279847265   16   14   15   15
 0.007040798542392615   16   14    6    6
 0.002684037624591923   16   14   16   12
 -0.0002304227068964627    7    5   16   12
 -0.009961617492868155   16   14    7    3
 0.00639265252155731   16   14   16   13
 0.0007447286704482829    7    5   16   13
 -0.00602004425698319   16   14    7    4
 0.01414515274194523    7    5    7    5
 0.01500116563249424   16   14   16   14
 -0.009961617492868155    7    5   16   14
 -0.009961617492868155   16   14    7    5
 0.007132799904630758   16   15   12   10
 0.01882211933375329   16   15    3    1
 0.03563607343729212   16   15   12   11
 0.07170814804630307   16   15    3    2
 0.0009254568205525171    7    6   12   12
 0.01698840242712105   16   15   13   10
 0.08487549974339234   16   15   13   11
 0.02337532851111451    7    6    4    3
 -0.001305813142615001    7    6   13   12
 -0.0012264192154625    7    6   13   13
 0.001105060628828157   16   15   14   10
 0.01882211933375328   16   15    5    1
 0.005520976649858629   16   15   14   11
 0.0717081480463031   16   15    5    2
 0.02000812133963739    7    6   14   12
 0.00819114617130158    7    6   14   13
 0.0003009623949099838    7    6   14   14
 -0.01936621495326262   16   15    6    1
 -0.01824877262395938   16   15    6    2
 2.45138561276482e-05   16   15   15   12
 -0.003444932680042731    7    6    6    4
 5.83853828098337e-05   16   15   15   13
 3.797849039610765e-06   16   15   15   14
 0.03255391288606933   16   15   16   10
 0.04454888573971728   16   15   16   11
 -0.003444932680042702    7    6    7    3
 5.177302225370049e-05    7    6   16   12
 -0.0001673309655433093    7    6   16   13
 0.002238247484753569    7    6   16   14
 0.02274618496305394    7    6    7    6
 0.08601438426490818   16   15   16   15
 0.8001281608446976    7    7    1    1
 1.014296987872666   16   16   10   10
 0.8003798706315534    7    7   10   10
 1.013941050189662   16   16    1    1
 -0.01518684323813758    7    7    2    1
 -0.01841919884057885   16   16   11   10
 -0.01301713544767658    7    7   11   10
 -0.02154235490435376   16   16    2    1
 0.54071244594816    7    7    2    2
 0.6129943252528143   16   16   11   11
 0.5270966097449568    7    7   11   11
 0.6335038194700378   16   16    2    2
 0.5176171121340797    7    7    3    3
 0.5251990385509857   16   16   12   12
 0.4588206620547026    7    7   12   12
 0.6323411063275688   16   16    3    3
 0.01694047244048097   16   16   13   12
 -7.455090036521375e-05    7    7   13   12
 0.5643677691563087    7    7    4    4
 0.5584339915070634   16   16   13   13
 0.4590385449530484    7    7   13   13
 0.6031333527249276   16   16    4    4
 0.001101942881800229   16   16   14   12
 0.0009972055362662789    7    7   14   12
 0.02920775360264133   16   16    5    3
 0.002624530251517435   16   16   14   13
 -0.003222979033576545    7    7   14   13
 0.5176171121340795    7    7    5    5
 0.518257082963127   16   16   14   14
 0.5019087119352642    7    7   14   14
 0.6323411063275683   16   16    5    5
 -0.0171036183193948   16   16   15   10
 -0.01214950902836973    7    7   15   10
 0.152699858072203   16   16   15   11
 0.1013771981272134    7    7   15   11
 -0.1136272528372201    7    7    6    3
 -0.1756578302685385   16   16    6    3
 -0.01065392361457128   16   16    6    5
 0.4452445344122887    7    7    6    6
 0.5292763265175517   16   16   15   15
 0.4690288307730272    7    7   15   15
 0.528497998369089   16   16    6    6
 0.07325619765431468   16   16   16   12
 0.04524430624128047    7    7   16   12
 -0.1205171181973056    7    7    7    4
 0.1744764724472722   16   16   16   13
 0.1077597145917082    7    7   16   13
 -0.1650039066539673   16   16    7    4
 0.0113493355944109   16   16   16   14
 0.007009547747641626    7    7   16   14
 0.4907369043383966    7    7    7    7
 0.6487634180800214   16   16   16   16
 0.5040640509062473    7    7   16   16
 0.5040640509062474   16   16    7    7
 0.0006016925617546585   17   10   12   10
 0.008357550800304574    8    1   12   10
 0.0007142311312310593   17   10   12   11
 0.009857181450606916    8    1   12   11
 -0.001944676840097682   17   10   13   10
 -0.02035158411716711    8    1   13   10
 0.03809637515875235   17   10    4    1
 -0.002308402708737751   17   10   13   11
 -0.02400335483966132    8    1   13   11
 0.03846512981162907   17   10    4    2
 -0.03222246813113635    8    1    5    1
 0.02601232851238521   17   10   14   10
 -0.00171479959672763    8    1   14   10
 -0.03233561568364746    8    1    5    2
 0.03087758765901182   17   10   14   11
 -0.002022493333304752    8    1   14   11
 0.0003493755958896291   17   10   15   12
 0.004836704338606163    8    1   15   12
 -0.001129185688851717   17   10   15   13
 -0.01177792364641363    8    1   15   13
 0.0151041800283997   17   10   15   14
 -0.0009923934472561471    8    1   15   14
 -0.03028966442492976    8    1   16   10
 -0.04283605422946551   17   10    7    1
 -0.0174479679882111    8    1   16   11
 -0.02231752975313136   17   10    7    2
 -0.01936621495326263    8    1   16   15
 0.03624158428345631    8    1    8    1
 0.0506315612877888   17   10   17   10
 0.0003820879259144334   17   11   12   10
 0.004748415385081753    8    2   12   10
 0.001202885606222717   17   11   12   11
 0.01066896171493492    8    2   12   11
 -0.00123491229181878   17   11   13   10
 -0.01156293003079562    8    2   13   10
 0.02383892717608476   17   11    4    1
 -0.003887739234945046   17   11   13   11
 -0.02598013185590457    8    2   13   11
 0.06667027690519248   17   11    4    2
 -0.01802033762202629    8    2    5    1
 0.01651839707062027   17   11   14   10
 -0.0009742783480462628    8    2   14   10
 -0.0400093364126059    8    2    5    2
 0.052003061930228   17   11   14   11
 -0.002189054147969545    8    2   14   11
 0.000784836190161322   17   11   15   12
 0.01221639760723199    8    2   15   12
 -0.002536599019649435   17   11   15   13
 -0.02974831376475517    8    2   15   13
 0.03392998036630138   17   11   15   14
 -0.00250655654878967    8    2   15   14
 -0.01578087662777174    8    2   16   10
 -0.02467515296477974   17   11    7    1
 -0.02966462164831039    8    2   16   11
 -0.04195211025770704   17   11    7    2
 -0.01824877262395937    8    2   16   15
 0.0187927077022456    8    2    8    1
 0.0293157917112133   17   11   17   10
 0.03464944811900338    8    2    8    2
 0.05441972339904025   17   11   17   11
 0.009487377563332296   17   12   10   10
 0.009483115867957678   17   12    1    1
 -0.0002208021580643645   17   12   11   10
 -0.0002604674565175888   17   12    2    1
 0.00401541655379231   17   12   11   11
 0.00432681755468339   17   12    2    2
 0.0030079052098203   17   12   12   12
 0.002375140551448291    8    3   12   12
 0.003966797742635561   17   12    3    3
 -0.0003694837448591159   17   12   13   12
 -0.002404935207267556    8    3   13   12
 0.01136042797510106   17   12    4    3
 0.002779265040526345   17   12   13   13
 -0.002371474697582825    8    3   13   13
 0.004533100428366743   17   12    4    4
 -0.01059812258564811    8    3    5    3
 0.004942277479264301   17   12   14   12
 -0.0002347320117662618    8    3   14   12
 -0.0001216623223117222    8    3   14   13
 -0.004650227009986155   17   12    5    4
 0.00277926504052634   17   12   14   14
 -3.665853865456049e-06    8    3   14   14
 0.003966797742635558   17   12    5    5
 -0.0002020510178579347   17   12   15   10
 0.002323000281802632   17   12   15   11
 -0.002318844975739957   17   12    6    3
 -0.01307423657091615   17   12    6    4
 0.01414515274194524    8    3    6    5
 0.002791169433466618   17   12   15   15
 0.002699989216520055   17   12    6    6
 0.001033857376258051   17   12   16   12
 -0.005460622769975718    8    3   16   12
 -0.01307423657091614   17   12    7    3
 0.001732726693742516   17   12   16   13
 -0.01300572823567102    8    3   16   13
 -0.002970578810083353   17   12    7    4
 0.005759076991475608   17   12   16   14
 -0.0008459958659523153    8    3   16   14
 0.005351749790613151   17   12    7    5
 0.002937613007212575   17   12    7    6
 0.00388752191862927   17   12   16   16
 -0.01065392361457129    8    3   16   16
 0.00284642543699251   17   12    7    7
 0.01414515274194524    8    3    8    3
 0.01464703298134292   17   12   17   12
 -0.0306633064681256   17   13   10   10
 -0.03064953262277441   17   13    1    1
 0.0007136349530051877   17   13   11   10
 0.0008418336248195813   17   13    2    1
 -0.01297786954974649   17   13   11   11
 -0.01398432093855898   17   13    2    2
 -0.008982614544948496   17   13   12   12
 5.919884691942027e-05    8    4   12   12
 -0.01282073302844084   17   13    3    3
 0.0001143200846469834   17   13   13   12
 -0.000167743608729996    8    4   13   12
 0.004658055718618378   17   13    4    3
 -0.009721582034666726   17   13   13   13
 0.000465913442813476    8    4   13   13
 -0.01465102940806535   17   13    4    4