 &FCI NORB=   9,NELEC= 7,MS2=3,
  ORBSYM=1,1,1,1,1,1,1,1,1
  ISYM=1, UHF=TRUE
 &END
 4.118000736791725    1    1    1    1
 4.132473341172471    2    2    2    2
 4.125226790223333    1    1    2    2
 4.125226790223333    2    2    1    1
 -0.4209229204939736    3    1    1    1
 -0.3794820050069869    4    2    2    2
 -0.4221109766578526    3    1    2    2
 -0.3784045867415139    4    2    1    1
 0.06888654263025917    3    1    3    1
 0.05666599100935413    4    2    4    2
 0.06246939108976653    3    1    4    2
 0.06246939108976659    4    2    3    1
 0.9908280669211792    3    3    1    1
 0.9342328597783996    4    4    2    2
 0.9911457104430225    3    3    2    2
 0.9339648140393522    4    4    1    1
 -0.01904002882108878    3    3    3    1
 -0.01401248048370361    4    4    4    2
 -0.01661740571231028    3    3    4    2
 -0.01608770474454668    4    4    3    1
 0.6990903324446502    3    3    3    3
 0.6577721481355274    4    4    4    4
 0.6775656833099032    3    3    4    4
 0.6775656833099031    4    4    3    3
 0.02877068412215421    5    1    5    1
 0.0135179292565774    6    2    6    2
 0.01824456484467631    5    1    6    2
 0.01824456484467631    6    2    5    1
 0.03189972085796179    5    3    5    1
 0.01789260959207021    6    4    6    2
 0.02046442036143992    5    3    6    2
 0.02389543497927858    6    4    5    1
 0.1391089557000916    5    3    5    3
 0.1142061286433493    6    4    6    4
 0.1153089484982435    5    3    6    4
 0.1153089484982435    6    4    5    3
 0.9504297507720297    5    5    1    1
 0.7367147860172448    6    6    2    2
 0.9506319032583583    5    5    2    2
 0.7366168614270654    6    6    1    1
 -0.01236968976156964    5    5    3    1
 -0.005019773087046747    6    6    4    2
 -0.010421836479949    5    5    4    2
 -0.006014178095353439    6    6    3    1
 0.6778193208990597    5    5    3    3
 0.571537578846791    6    6    4    4
 0.657435294354649    5    5    4    4
 0.5850279473771813    6    6    3    3
 0.7085025264743374    5    5    5    5
 0.5477767756810912    6    6    6    6
 0.6026931002945143    5    5    6    6
 0.6026931002945142    6    6    5    5
 0.0004547340159271137    7    1    6    2
 0.007480721658964812    8    2    5    1
 0.0005955783107440476    7    1    6    4
 0.008390917182146702    8    2    5    3
 0.02877068412215424    7    1    7    1
 0.01351792925657741    8    2    8    2
 -0.001469705237171684    7    1    8    2
 -0.001469705237171684    8    2    7    1
 0.0005100624834740072    7    3    6    2
 0.009797717814685766    8    4    5    1
 0.002874001198128829    7    3    6    4
 0.04727951342478688    8    4    5    3
 0.03189972085796183    7    3    7    1
 0.01789260959207021    8    4    8    2
 -0.001648527440196379    7    3    8    2
 -0.001924915514978084    8    4    7    1
 0.1391089557000917    7    3    7    3
 0.1142061286433493    8    4    8    4
 -0.009288802826671903    7    3    8    4
 -0.009288802826671903    8    4    7    3
 0.001278747596387753    7    5    6    6
 0.02103637402437109    8    6    5    5
 0.03579916399559366    7    5    7    5
 0.02783879240909909    8    6    8    6
 -0.001804303972230235    7    5    8    6
 -0.001804303972230235    8    6    7    5
 0.9504297507720303    7    7    1    1
 0.7367147860172446    8    8    2    2
 0.9506319032583589    7    7    2    2
 0.7366168614270652    8    8    1    1
 -0.01236968976156965    7    7    3    1
 -0.005019773087046694    8    8    4    2
 -0.01042183647994903    7    7    4    2
 -0.006014178095353401    8    8    3    1
 0.6778193208990598    7    7    3    3
 0.5715375788467908    8    8    4    4
 0.6574352943546491    7    7    4    4
 0.5850279473771811    8    8    3    3
 0.6369041984831505    7    7    5    5
 0.4920991908628928    8    8    6    6
 0.5514198298516946    7    7    6    6
 0.5600133901856961    8    8    5    5
 -0.0001030105160321319    7    7    8    6
 -0.001694601616313259    8    8    7    5
 0.7085025264743379    7    7    7    7
 0.5477767756810907    8    8    8    8
 0.5517208889895885    7    7    8    8
 0.5517208889895886    8    8    7    7
 -0.007468148947566636    9    1    6    2
 0.0001372413544682853   10    2    5    1
 -0.00978125097043454    9    1    6    4
 0.00015393980578451   10    2    5    3
 0.01818578972925854    9    1    8    2
 0.01965902748333371   10    2    7    1
 0.02381845550836097    9    1    8    4
 0.02205098371712789   10    2    7    3
 0.02877068412215419    9    1    9    1
 0.01351792925657741   10    2   10    2
 0.001532312409410953    9    1   10    2
 0.001532312409410953   10    2    9    1
 -0.008376814721861909    9    3    6    2
 0.0001797489767546833   10    4    5    1
 -0.04720005161556096    9    3    6    4
 0.0008673901739470859   10    4    5    3
 0.02039849395108476    9    3    8    2
 0.02574799766303692   10    4    7    1
 0.1149374791420607    9    3    8    4
 0.1242486081142537   10    4    7    3
 0.03189972085796177    9    3    9    1
 0.01789260959207021   10    4   10    2
 0.001718752161983554    9    3   10    2
 0.002006913941699477   10    4    9    1
 0.1391089557000916    9    3    9    3
 0.1142061286433493   10    4   10    4
 0.009684491474815503    9    3   10    4
 0.009684491474815503   10    4    9    3
 -0.0210010185771923    9    5    6    6
 0.0003859334160289513   10    6    5    5
 0.02126446324785825    9    5    8    6
 0.02764617052151696   10    6    7    5
 0.02096860505746068    9    5    8    8
 0.001377886200939943   10    6    7    7
 0.03579916399559362    9    5    9    5
 0.0278387924090991   10    6   10    6
 0.002075502999921007    9    5   10    6
 0.002075502999921007   10    6    9    5
 -0.0005234368480404267    9    7    6    6
 0.0001582422211099928   10    8    5    5
 0.001483190812011442    9    7    8    6
 0.01131809528613036   10    8    7    5
 -0.004119611726524139    9    7    8    8
 -0.004453343041908308   10    8    7    7
 -0.01126089232806433    9    7   10    6
 0.001075739576529416   10    8    9    5
 0.03579916399559364    9    7    9    7
 0.02783879240909909   10    8   10    8
 0.02737875720420727    9    7   10    8
 0.02737875720420727   10    8    9    7
 0.9504297507720293    9    9    1    1
 0.7367147860172447   10   10    2    2
 0.9506319032583579    9    9    2    2
 0.7366168614270653   10   10    1    1
 -0.0123696897615696    9    9    3    1
 -0.005019773087046736   10   10    4    2
 -0.01042183647994898    9    9    4    2
 -0.006014178095353442   10   10    3    1
 0.6778193208990594    9    9    3    3
 0.5715375788467908   10   10    4    4
 0.6574352943546486    9    9    4    4
 0.5850279473771813   10   10    3    3
 0.6369041984831498    9    9    5    5
 0.4920991908628929   10   10    6    6
 0.5599844213388306    9    9    6    6
 0.5513908610048289   10   10    5    5
 -0.02093336350833901    9    9    8    6
 0.0004158540199255076   10   10    7    5
 0.6369041984831502    9    9    7    7
 0.4920991908628927   10   10    8    8
 0.6023630723097541    9    9    8    8
 0.6109566326437564   10   10    7    7
 -0.001763819616968931    9    9   10    6
 3.241351973160913e-05   10   10    9    5
 0.004295100820798432    9    9   10    8
 0.004643048574564572   10   10    9    7
 0.7085025264743368    9    9    9    9
 0.547776775681091   10   10   10   10
 0.5517498578364538    9    9   10   10
 0.5517498578364538   10   10    9    9
 -0.3624122252630153   12    2    2    2
 -0.3613838009347337   12    2    1    1
 0.054005662097709   12    2    4    2
 0.0595613904079124   12    2    3    1
 -0.01294103482538436   12    2    4    4
 -0.01534896437683572   12    2    3    3
 -0.03222246813113636   11    1    5    1
 -0.02041735891843936   11    1    6    2
 -0.03233561568364747   11    1    5    3
 -0.02408093189142087   11    1    6    4
 -0.004665083905857686   12    2    6    6
 -0.00961919319688271   12    2    5    5
 -0.008371620829564245   11    1    8    2
 -0.00987377612466178   11    1    8    4
 -0.004665083905857688   12    2    8    8
 -0.00961919319688272   12    2    7    7
 -0.0001535857948099752   11    1   10    2
 -0.0001811443428644713   11    1   10    4
 -0.00466508390585769   12    2   10   10
 -0.009619193196882701   12    2    9    9
 0.03624158428345631   11    1   11    1
 0.05169632239961138   12    2   12    2
 0.3871330234890907   12    4    2    2
 0.3868756416999051   12    4    1    1
 -0.0135107185460762   12    4    4    2
 -0.01549131621917641   12    4    3    1
 0.1487129207475192   12    4    4    4
 0.1614587902034394   12    4    3    3
 -0.01802033762202629   11    3    5    1
 -0.01160030055785247   11    3    6    2
 -0.0400093364126059   11    3    5    3
 -0.02606409770347745   11    3    6    4
 0.10202425127304   12    4    6    6
 0.1533469112180297   12    4    5    5
 -0.004756409394930034   11    3    8    2
 -0.01068692303004819   11    3    8    4
 0.10202425127304   12    4    8    8
 0.1533469112180297   12    4    7    7
 -8.726110895779629e-05   11    3   10    2
 -0.0001960623397856893   11    3   10    4
 0.10202425127304   12    4   10   10
 0.1533469112180295   12    4    9    9
 0.0187927077022456   11    3   11    1
 -0.01232161019068605   12    4   12    2
 0.03464944811900337   11    3   11    3
 0.09447896844129614   12    4   12    4
 -0.427419020632181   11    5    1    1
 -0.4276430327863093   11    5    2    2
 0.01363350984086497   11    5    3    1
 0.01161381615451361   11    5    4    2
 -0.1763303138331293   11    5    3    3
 -0.1627947010392745   11    5    4    4
 0.008426793717934341   12    6    6    2
 0.01117990454447953   12    6    5    1
 -0.0003190912432460211   12    6    6    4
 0.009758942548109399   12    6    5    3
 -0.1846029848001723   11    5    5    5
 -0.1178325150499977   11    5    6    6
 0.0002786519127463007   12    6    7    1
 0.0002432353511242416   12    6    7    3
 -0.002379139126850652   11    5    8    6
 -0.1634067396288763   11    5    7    7
 -0.113005591544792   11    5    8    8
 -0.004576332352597232   12    6    9    1
 -0.003994682095215536   12    6    9    3
 -4.364769752476252e-05   11    5   10    6
 -1.789663272418716e-05   11    5   10    8
 -0.1634067396288761   11    5    9    9
 -0.1120304141438366   11    5   10   10
 0.01066991636432171   11    5   12    2
 -0.01181598901679378   12    6   11    1
 -0.1005698550461116   11    5   12    4
 -0.02984445809508329   12    6   11    3
 0.1292521337108296   11    5   11    5
 0.03875992701770166   12    6   12    6
 0.004584036658756001   12    8    5    1
 0.004001407186729226   12    8    5    3
 -0.0001446218077510815   11    7    6    6
 0.008426793717934348   12    8    8    2
 -0.0009006059832057672   12    8    7    1
 -0.0003190912432459846   12    8    8    4
 -0.0007861392745905498   12    8    7    3
 -0.01059812258564814   11    7    7    5
 0.0002040603657308988   11    7    8    6
 0.0001916534192216091   11    7    8    8
 0.01114388832893503   12    8    9    1
 0.009727503981089415   12    8    9    3
 -0.003126683615680509   11    7   10    6
 -0.001280036345876985   11    7   10    8
 -4.703161147052848e-05   11    7   10   10
 -0.004844846983884739   12    8   11    1
 -0.01223696404779439   12    8   11    3
 0.01414515274194525   11    7   11    7
 0.03875992701770163   12    8   12    8
 8.409875793547495e-05   12   10    5    1
 7.340983492251017e-05   12   10    5    3
 0.002375140551448282   11    9    6    6
 0.01204665896786808   12   10    7    1
 0.01051553278441386   12   10    7    3
 -0.002404935207267547   11    9    8    6
 -0.002371474697582816   11    9    8    8
 0.008426793717934348   12   10   10    2
 0.000938970406550129   12   10    9    1
 -0.000319091243245982   12   10   10    4
 0.0008196275930121906   12   10    9    3
 -0.0105981225856481   11    9    9    5
 -0.0002347320117662609   11    9   10    6
 -0.0001216623223117218   11    9   10    8
 -3.665853865456035e-06   11    9   10   10
 -8.888358537750215e-05   12   10   11    1
 -0.000224499399531383   12   10   11    3
 0.01414515274194524   11    9   11    9
 0.03875992701770163   12   10   12   10
 0.8001281608446983   11   11    1    1
 0.7898375596180652   12   12    2    2
 0.800379870631554   11   11    2    2
 0.7895853393240503   12   12    1    1
 -0.01518684323813759   11   11    3    1
 -0.01318594527393522   12   12    4    2
 -0.01301713544767664   11   11    4    2
 -0.01514070197520299   12   12    3    1
 0.5407124459481604   11   11    3    3
 0.5494973015730533   12   12    4    4
 0.527096609744957   11   11    4    4
 0.5633039319423401   12   12    3    3
 0.5643677691563088   11   11    5    5
 0.4916302610968276   12   12    6    6
 0.4959282178987044   11   11    6    6
 0.5518777568413522   12   12    5    5
 0.01522447109620585   11   11    8    6
 0.51761711213408   11   11    7    7
 0.4916302610968274   12   12    8    8
 0.4650400043599374   11   11    8    8
 0.5518777568413524   12   12    7    7
 0.0002793082177843815   11   11   10    6
 0.0001145232595074312   11   11   10    8
 0.5176171121340797   11   11    9    9
 0.4916302610968274   12   12   10   10
 0.458799696684374   11   11   10   10
 0.5518777568413521   12   12    9    9
 -0.01215393641607675   12   12   12    2
 -0.01214950902836983   11   11   12    2
 0.1030512315201461   12   12   12    4
 0.1013771981272137   11   11   12    4
 -0.1205171181973056   11   11   11    5
 -0.1152743179017897   12   12   11    5
 0.4907369043383966   11   11   11   11
 0.4835412980257797   12   12   12   12
 0.4690288307730279   11   11   12   12
 0.4690288307730286   12   12   11   11
 0.01008269305690614   14    2    6    2
 -0.0005088895073491632   13    1    6    2
 0.02693820521338049   14    2    5    1
 0.01196852632993994   14    2    6    4
 -0.0006002017016836863   13    1    6    4
 0.02719895412902374   14    2    5    3
 -0.03222246813113636   13    1    7    1
 0.02401425099401101   14    2    8    2
 0.001644736368727388   13    1    8    2
 -0.03233561568364746   13    1    7    3
 0.02850579638727985   14    2    8    4
 0.001939858364291051   13    1    8    4
 0.001562077624315858   14    2   10    2
 -0.02200027369969364   13    1   10    2
 0.02693820521338047   14    2    9    1
 0.001854243412004756   14    2   10    4
 -0.02594787575960561   13    1   10    4
 0.02719895412902373   14    2    9    3
 -0.03028966442492976   14    2   11    1
 -0.01578087662777174   14    2   11    3
 0.005854562809711411   14    2   12    6
 -0.0002945059081157068   13    1   12    6
 0.01394398698632535   14    2   12    8
 0.0009518462669945359   13    1   12    8
 0.0009070276674680598   14    2   12   10
 -0.01273205772795942   13    1   12   10
 0.03624158428345627   13    1   13    1
 0.05063156128778877   14    2   14    2
 0.006402730435142044   14    4    6    2
 -0.0002891300123375111   13    3    6    2
 0.01685666706242181   14    4    5    1
 0.02015701559405279   14    4    6    4
 -0.0006496308309418158   13    3    6    4
 0.04714300490324652   14    4    5    3
 -0.01802033762202628   13    3    7    1
 0.01524957418109425   14    4    8    2
 0.0009344713139385289   13    3    8    2
 -0.04000933641260584   13    3    7    3
 0.04800856567127385   14    4    8    4
 0.002099613842427863   13    3    8    4
 0.0009919534285942515   14    4   10    2
 -0.01249964739763564   13    3   10    2
 0.01685666706242178   14    4    9    1
 0.003122858432240831   14    4   10    4
 -0.02808479223501301   13    3   10    4
 0.0471430049032464   14    4    9    3
 -0.01744796798821112   14    4   11    1
 -0.02966462164831041   14    4   11    3
 0.01315167065099083   14    4   12    6
 -0.0007438538763891482   13    3   12    6
 0.031323726530298   14    4   12    8
 0.002404143740139334   13    3   12    8
 0.002037543970676841   14    4   12   10
 -0.03215823599583652   13    3   12   10
 0.01879270770224557   13    3   13    1
 0.0293157917112133   14    4   14    2
 0.03464944811900332   13    3   13    3
 0.05441972339904026   14    4   14    4
 0.158982048252514   14    6    2    2
 0.1589106340966883   14    6    1    1
 -0.003700029761998668   14    6    4    2
 -0.004364709790862827   14    6    3    1
 0.06728720808753531   14    6    4    4
 0.07250542235370794   14    6    3    3
 0.05040412147766143   14    6    6    6
 -0.0001446218077510802   13    5    6    6
 0.08253856341667984   14    6    5    5
 -0.0105981225856481   13    5    7    5
 0.004562647738843957   14    6    8    6
 0.000204060365730897   13    5    8    6
 0.000200218234642336   14    6    7    5
 0.04657274845761389   14    6    8    8
 0.0001916534192216074   13    5    8    8
 0.06647249209992921   14    6    7    7
 0.000296790848994662   14    6   10    6
 -0.003126683615680483   13    5   10    6
 0.004744828605557245   14    6    9    5
 -0.001280036345876973   13    5   10    8
 0.000200218234642336   14    6    9    7
 0.04657274845761394   14    6   10   10
 -4.70316114705281e-05   13    5   10   10
 0.05989607799429304   14    6    9    9
 -0.003385812829322791   14    6   12    2
 0.0389270207100763   14    6   12    4
 -0.05734715201934231   14    6   11    5
 0.01414515274194524   13    5   11    7
 -0.0002304227068964638   14    6   11    7
 -0.005460622769975716   14    6   11    9
 0.04677223295796329   14    6   12   12
 0.04939871839708418   14    6   11   11
 0.01414515274194523   13    5   13    5
 0.0319099095372769   14    6   14    6
 -0.0002304227068964636   13    5   14    6
 -0.0002304227068964637   14    6   13    5
 -0.4274190206321808   13    7    1    1
 0.3786522894954943   14    8    2    2
 -0.4276430327863091   13    7    2    2
 0.37848220026905   14    8    1    1
 0.01363350984086493   13    7    3    1
 -0.00881247131976181   14    8    4    2
 0.01161381615451359   13    7    4    2
 -0.01039555958335992   14    8    3    1
 -0.1763303138331291   13    7    3    3
 0.1602599518383173   14    8    4    4
 -0.1627947010392743   13    7    4    4
 0.1726883285052601   14    8    3    3
 -0.1634067396288761   13    7    5    5
 0.1109237050686593   14    8    6    6
 -0.1120336904174451   13    7    6    6
 0.1649070040251865   14    8    5    5
 0.001915686510023672   14    8    8    6
 1.165012320499782e-05   13    7    8    6
 -0.0006471074908068376   14    8    7    5
 -0.1846029848001724   13    7    7    7
 0.1200490005463473   14    8    8    8
 -0.1120677391358046   13    7    8    8
 0.158319518453627   14    8    7    7
 -0.0001558340315306222   13    7   10    6
 0.01130089990980832   14    8    9    5
 0.0002967908489946817   14    8   10    8
 0.0005036572683114258   13    7   10    8
 -0.0006471074908068355   14    8    9    7
 -0.163406739628876   13    7    9    9
 0.1109237050686593   14    8   10   10
 -0.1187670911853764   13    7   10   10
 0.1743338327016838   14    8    9    9
 -0.008064091472705152   14    8   12    2
 0.01066991636432166   13    7   12    2
 0.09271364708861607   14    8   12    4
 -0.1005698550461116   13    7   12    4
 0.1009618282269391   13    7   11    5
 -0.1001290628022015   14    8   11    5
 0.0007447286704482839   14    8   11    7
 -0.01300572823567102   14    8   11    9
 -0.1136272528372202   13    7   11   11
 0.1113988232571995   14    8   12   12
 -0.1152743179017897   13    7   12   12
 0.1094631260602068   14    8   11   11
 0.04126245212849073   14    8   14    6
 -0.03885738934307841   13    7   14    6
 0.0007447286704482833   14    8   13    5
 0.1292521337108295   13    7   13    7
 0.112861350541119   14    8   14    8
 -0.09254780398353432   13    7   14    8
 -0.09254780398353434   14    8   13    7
 0.02463055245672222   14   10    2    2
 0.02461948850245473   14   10    1    1
 -0.0005732331300675675   14   10    4    2
 -0.000676209764837496   14   10    3    1
 0.01042458017545521   14   10    4    4
 0.01123302050960689   14   10    3    3
 0.007215358819110246   14   10    6    6
 5.919884691941951e-05   13    9    6    6
 0.0104192130167394   14   10    5    5
 -0.0001677436087299939   13    9    8    6
 0.008655819973074413   14   10    7    5
 0.007215358819110254   14   10    8    8
 0.0004659134428134703   13    9    8    8
 0.01029835897569944   14   10    7    7
 0.001915686510023745   14   10   10    6
 0.001273566894651744   13    9   10    6
 0.0007351002905794233   14   10    9    5
 -0.01059812258564809   13    9    9    7
 0.004562647738843986   14   10   10    8
 -0.003096440120032644   13    9   10    8
 0.00865581997307438   14   10    9    7
 0.00780894051709958   14   10   10   10
 -0.0005251122897328932   13    9   10   10
 0.01164770551581829   14   10    9    9
 -0.0005245525606062248   14   10   12    2
 0.006030832009791297   14   10   12    4
 -0.006159130066652584   14   10   11    5
 -0.009961617492868162   14   10   11    7
 -0.0008459958659523155   14   10   11    9
 0.007246264279847265   14   10   12   12
 0.007040798542392615   14   10   11   11
 0.002684037624591923   14   10   14    6
 -0.0002304227068964627   13    9   14    6
 -0.009961617492868155   14   10   13    5
 0.00639265252155731   14   10   14    8
 0.0007447286704482829   13    9   14    8
 -0.00602004425698319   14   10   13    7
 0.01414515274194523   13    9   13    9
 0.01500116563249424   14   10   14   10
 -0.009961617492868155   13    9   14   10
 -0.009961617492868155   14   10   13    9
 0.007132799904630758   14   12    6    2
 0.01882211933375329   14   12    5    1
 0.03563607343729212   14   12    6    4
 0.07170814804630307   14   12    5    3
 0.0009254568205525171   13   11    6    6
 0.01698840242712105   14   12    8    2
 0.08487549974339234   14   12    8    4
 0.02337532851111451   13   11    7    5
 -0.001305813142615001   13   11    8    6
 -0.0012264192154625   13   11    8    8
 0.001105060628828157   14   12   10    2
 0.01882211933375328   14   12    9    1
 0.005520976649858629   14   12   10    4
 0.0717081480463031   14   12    9    3
 0.02000812133963739   13   11   10    6
 0.00819114617130158   13   11   10    8
 0.0003009623949099838   13   11   10   10
 -0.01936621495326262   14   12   11    1
 -0.01824877262395938   14   12   11    3
 2.45138561276482e-05   14   12   12    6
 -0.003444932680042731   13   11   11    7
 5.83853828098337e-05   14   12   12    8
 3.797849039610765e-06   14   12   12   10
 0.03255391288606933   14   12   14    2
 0.04454888573971728   14   12   14    4
 -0.003444932680042702   13   11   13    5
 5.177302225370049e-05   13   11   14    6
 -0.0001673309655433093   13   11   14    8
 0.002238247484753569   13   11   14   10
 0.02274618496305394   13   11   13   11
 0.08601438426490818   14   12   14   12
 0.8001281608446976   13   13    1    1
 1.014296987872666   14   14    2    2
 0.8003798706315534   13   13    2    2
 1.013941050189662   14   14    1    1
 -0.01518684323813758   13   13    3    1
 -0.01841919884057885   14   14    4    2
 -0.01301713544767658   13   13    4    2
 -0.02154235490435376   14   14    3    1
 0.54071244594816   13   13    3    3
 0.6129943252528143   14   14    4    4
 0.5270966097449568   13   13    4    4
 0.6335038194700378   14   14    3    3
 0.5176171121340797   13   13    5    5
 0.5251990385509857   14   14    6    6
 0.4588206620547026   13   13    6    6
 0.6323411063275688   14   14    5    5
 0.01694047244048097   14   14    8    6
 -7.455090036521375e-05   13   13    8    6
 0.5643677691563087   13   13    7    7
 0.5584339915070634   14   14    8    8
 0.4590385449530484   13   13    8    8
 0.6031333527249276   14   14    7    7
 0.001101942881800229   14   14   10    6
 0.0009972055362662789   13   13   10    6
 0.02920775360264133   14   14    9    5
 0.002624530251517435   14   14   10    8
 -0.003222979033576545   13   13   10    8
 0.5176171121340795   13   13    9    9
 0.518257082963127   14   14   10   10
 0.5019087119352642   13   13   10   10
 0.6323411063275683   14   14    9    9
 -0.0171036183193948   14   14   12    2
 -0.01214950902836973   13   13   12    2
 0.152699858072203   14   14   12    4
 0.1013771981272134   13   13   12    4
 -0.1136272528372201   13   13   11    5
 -0.1756578302685385   14   14   11    5
 -0.01065392361457128   14   14   11    9
 0.4452445344122887   13   13   11   11
 0.5292763265175517   14   14   12   12
 0.4690288307730272   13   13   12   12
 0.528497998369089   14   14   11   11
 0.07325619765431468   14   14   14    6
 0.04524430624128047   13   13   14    6
 -0.1205171181973056   13   13   13    7
 0.1744764724472722   14   14   14    8
 0.1077597145917082   13   13   14    8
 -0.1650039066539673   14   14   13    7
 0.0113493355944109   14   14   14   10
 0.007009547747641626   13   13   14   10
 0.4907369043383966   13   13   13   13
 0.6487634180800214   14   14   14   14
 0.5040640509062473   13   13   14   14
 0.5040640509062474   14   14   13   13
 0.0006016925617546585   16    2    6    2
 0.008357550800304574   15    1    6    2
 0.0007142311312310593   16    2    6    4
 0.009857181450606916   15    1    6    4
 -0.001944676840097682   16    2    8    2
 -0.02035158411716711   15    1    8    2
 0.03809637515875235   16    2    7    1
 -0.002308402708737751   16    2    8    4
 -0.02400335483966132   15    1    8    4
 0.03846512981162907   16    2    7    3
 -0.03222246813113635   15    1    9    1
 0.02601232851238521   16    2   10    2
 -0.00171479959672763   15    1   10    2
 -0.03233561568364746   15    1    9    3
 0.03087758765901182   16    2   10    4
 -0.002022493333304752   15    1   10    4
 0.0003493755958896291   16    2   12    6
 0.004836704338606163   15    1   12    6
 -0.001129185688851717   16    2   12    8
 -0.01177792364641363   15    1   12    8
 0.0151041800283997   16    2   12   10
 -0.0009923934472561471   15    1   12   10
 -0.03028966442492976   15    1   14    2
 -0.04283605422946551   16    2   13    1
 -0.0174479679882111   15    1   14    4
 -0.02231752975313136   16    2   13    3
 -0.01936621495326263   15    1   14   12
 0.03624158428345631   15    1   15    1
 0.0506315612877888   16    2   16    2
 0.0003820879259144334   16    4    6    2
 0.004748415385081753   15    3    6    2
 0.001202885606222717   16    4    6    4
 0.01066896171493492   15    3    6    4
 -0.00123491229181878   16    4    8    2
 -0.01156293003079562   15    3    8    2
 0.02383892717608476   16    4    7    1
 -0.003887739234945046   16    4    8    4
 -0.02598013185590457   15    3    8    4
 0.06667027690519248   16    4    7    3
 -0.01802033762202629   15    3    9    1
 0.01651839707062027   16    4   10    2
 -0.0009742783480462628   15    3   10    2
 -0.0400093364126059   15    3    9    3
 0.052003061930228   16    4   10    4
 -0.002189054147969545   15    3   10    4
 0.000784836190161322   16    4   12    6
 0.01221639760723199   15    3   12    6
 -0.002536599019649435   16    4   12    8
 -0.02974831376475517   15    3   12    8
 0.03392998036630138   16    4   12   10
 -0.00250655654878967   15    3   12   10
 -0.01578087662777174   15    3   14    2
 -0.02467515296477974   16    4   13    1
 -0.02966462164831039   15    3   14    4
 -0.04195211025770704   16    4   13    3
 -0.01824877262395937   15    3   14   12
 0.0187927077022456   15    3   15    1
 0.0293157917112133   16    4   16    2
 0.03464944811900338   15    3   15    3
 0.05441972339904025   16    4   16    4
 0.009487377563332296   16    6    2    2
 0.009483115867957678   16    6    1    1
 -0.0002208021580643645   16    6    4    2
 -0.0002604674565175888   16    6    3    1
 0.00401541655379231   16    6    4    4
 0.00432681755468339   16    6    3    3
 0.0030079052098203   16    6    6    6
 0.002375140551448291   15    5    6    6
 0.003966797742635561   16    6    5    5
 -0.0003694837448591159   16    6    8    6
 -0.002404935207267556   15    5    8    6
 0.01136042797510106   16    6    7    5
 0.002779265040526345   16    6    8    8
 -0.002371474697582825   15    5    8    8
 0.004533100428366743   16    6    7    7
 -0.01059812258564811   15    5    9    5
 0.004942277479264301   16    6   10    6
 -0.0002347320117662618   15    5   10    6
 -0.0001216623223117222   15    5   10    8
 -0.004650227009986155   16    6    9    7
 0.00277926504052634   16    6   10   10
 -3.665853865456049e-06   15    5   10   10
 0.003966797742635558   16    6    9    9
 -0.0002020510178579347   16    6   12    2
 0.002323000281802632   16    6   12    4
 -0.002318844975739957   16    6   11    5
 -0.01307423657091615   16    6   11    7
 0.01414515274194524   15    5   11    9
 0.002791169433466618   16    6   12   12
 0.002699989216520055   16    6   11   11
 0.001033857376258051   16    6   14    6
 -0.005460622769975718   15    5   14    6
 -0.01307423657091614   16    6   13    5
 0.001732726693742516   16    6   14    8
 -0.01300572823567102   15    5   14    8
 -0.002970578810083353   16    6   13    7
 0.005759076991475608   16    6   14   10
 -0.0008459958659523153   15    5   14   10
 0.005351749790613151   16    6   13    9
 0.002937613007212575   16    6   13   11
 0.00388752191862927   16    6   14   14
 -0.01065392361457129   15    5   14   14
 0.00284642543699251   16    6   13   13
 0.01414515274194524   15    5   15    5
 0.01464703298134292   16    6   16    6
 -0.0306633064681256   16    8    2    2
 -0.03064953262277441   16    8    1    1
 0.0007136349530051877   16    8    4    2
 0.0008418336248195813   16    8    3    1
 -0.01297786954974649   16    8    4    4
 -0.01398432093855898   16    8    3    3
 -0.008982614544948496   16    8    6    6
 5.919884691942027e-05   15    7    6    6
 -0.01282073302844084   16    8    5    5
 0.0001143200846469834   16    8    8    6
 -0.000167743608729996   15    7    8    6
 0.004658055718618378   16    8    7    5
 -0.009721582034666726   16    8    8    8
 0.000465913442813476   15    7    8    8
 -0.01465102940806535   16    8    7    7