 &FCI NORB=   9,NELEC= 7,MS2=3,
  ORBSYM=1,1,1,1,1,1,1,1,1
  ISYM=1, UHF=TRUE
 &END
 4.118000736791725    1    1    1    1
 4.132473341172466    2    2    2    2
 4.125226790223329    1    1    2    2
 4.12522679022333    2    2    1    1
 -0.4209229204939736    3    1    1    1
 -0.3794820050069839    4    2    2    2
 -0.4221109766578524    3    1    2    2
 -0.3784045867415112    4    2    1    1
 0.06888654263025924    3    1    3    1
 0.05666599100935331    4    2    4    2
 0.06246939108976612    3    1    4    2
 0.06246939108976615    4    2    3    1
 0.9908280669211808    3    3    1    1
 0.9342328597783929    4    4    2    2
 0.9911457104430231    3    3    2    2
 0.9339648140393462    4    4    1    1
 -0.01904002882108885    3    3    3    1
 -0.01401248048370328    4    4    4    2
 -0.01661740571231021    3    3    4    2
 -0.0160877047445464    4    4    3    1
 0.6990903324446512    3    3    3    3
 0.6577721481355225    4    4    4    4
 0.677565683309901    3    3    4    4
 0.677565683309901    4    4    3    3
 0.02877068412215453    5    1    5    1
 0.01351792925657784    6    2    6    2
 -0.004060641515951057    5    1    6    2
 -0.004060641515951057    6    2    5    1
 0.03189972085796206    5    3    5    1
 0.01789260959207055    6    4    6    2
 -0.004554708518783044    5    3    6    2
 -0.005318339798434786    6    4    5    1
 0.139108955700092    5    3    5    3
 0.1142061286433502    6    4    6    4
 -0.02566398855872122    5    3    6    4
 -0.02566398855872121    6    4    5    3
 0.950429750772034    5    5    1    1
 0.7367147860172516    6    6    2    2
 0.9506319032583618    5    5    2    2
 0.7366168614270727    6    6    1    1
 -0.0123696897615697    5    5    3    1
 -0.005019773087046822    6    6    4    2
 -0.01042183647994904    5    5    4    2
 -0.006014178095353588    6    6    3    1
 0.6778193208990616    5    5    3    3
 0.5715375788467923    6    6    4    4
 0.6574352943546478    5    5    4    4
 0.585027947377185    6    6    3    3
 0.7085025264743406    5    5    5    5
 0.5477767756810961    6    6    6    6
 0.5539294173127411    5    5    6    6
 0.5539294173127411    6    6    5    5
 -0.01484168984818358    7    1    6    2
 0.0192040748967096    8    2    5    1
 -0.01943859104172441    7    1    6    4
 0.02154067606898917    8    2    5    3
 0.02877068412215454    7    1    7    1
 0.01351792925657784    8    2    8    2
 -0.004340266800307089    7    1    8    2
 -0.004340266800307092    8    2    7    1
 -0.01664751023184691    7    3    6    2
 0.02515213308392042    8    4    5    1
 -0.09380216326893913    7    3    6    4
 0.1213732255097996    8    4    5    3
 0.03189972085796207    7    3    7    1
 0.01789260959207055    8    4    8    2
 -0.004868356414003672    7    3    8    2
 -0.005684573131911182    8    4    7    1
 0.1391089557000921    7    3    7    3
 0.1142061286433501    8    4    8    4
 -0.02743127091306174    7    3    8    4
 -0.02743127091306174    8    4    7    3
 0.009289062413333203    7    5    6    6
 -0.01201937596935408    8    6    5    5
 0.03579916399559382    7    5    7    5
 0.02783879240909927    8    6    8    6
 -0.02060724120826794    7    5    8    6
 -0.02060724120826795    8    6    7    5
 0.9504297507720343    7    7    1    1
 0.7367147860172514    8    8    2    2
 0.9506319032583621    7    7    2    2
 0.7366168614270725    8    8    1    1
 -0.01236968976156976    7    7    3    1
 -0.005019773087046827    8    8    4    2
 -0.01042183647994907    7    7    4    2
 -0.006014178095353576    8    8    3    1
 0.6778193208990617    7    7    3    3
 0.5715375788467922    8    8    4    4
 0.6574352943546479    7    7    4    4
 0.5850279473771849    8    8    3    3
 0.6369041984831531    7    7    5    5
 0.4920991908628974    8    8    6    6
 0.5853395842000084    7    7    6    6
 0.6082314382686138    8    8    5    5
 0.009928729005059086    7    7    8    6
 -0.01284705834663616    8    8    7    5
 0.7085025264743408    7    7    7    7
 0.5477767756810958    8    8    8    8
 0.554291490664565    7    7    8    8
 0.554291490664565    8    8    7    7
 0.01233205623686321    9    1    6    2
 0.001886498327696135   10    2    5    1
 0.01615165121654048    9    1    6    4
 0.002116032644121525   10    2    5    3
 0.001099895251202346    9    1    8    2
 0.01223644166628411   10    2    7    1
 0.00144056466585399    9    1    8    4
 0.01372527589004924   10    2    7    3
 0.02877068412215456    9    1    9    1
 0.01351792925657783   10    2   10    2
 0.01534779454863542    9    1   10    2
 0.01534779454863542   10    2    9    1
 0.01383252409145428    9    3    6    2
 0.002470801496870667   10    4    5    1
 0.07794082509503157    9    3    6    4
 0.01192301051640631   10    4    5    3
 0.001233721876393465    9    3    8    2
 0.0160264220442475   10    4    7    1
 0.006951536852431934    9    3    8    4
 0.07733652372152942   10    4    7    3
 0.03189972085796208    9    3    9    1
 0.01789260959207054   10    4   10    2
 0.01721519378172172    9    3   10    2
 0.02010145102579704   10    4    9    1
 0.1391089557000922    9    3    9    3
 0.1142061286433501   10    4   10    4
 0.09700083648126012    9    3   10    4
 0.09700083648126015   10    4    9    3
 -0.007718342132245666    9    5    6    6
 -0.001180714654993473   10    6    5    5
 0.0179070573783899    9    5    8    6
 -0.005987012207677254   10    6    7    5
 0.003255656649122277    9    5    8    8
 -0.02799189977956063   10    6    7    7
 0.03579916399559385    9    5    9    5
 0.02783879240909927   10    6   10    6
 -0.003010011769992197    9    5   10    6
 -0.003010011769992196   10    6    9    5
 -0.02821062623207908    9    7    6    6
 0.005583977944634372   10    8    5    5
 -0.005382974534296679    9    7    8    6
 0.01747873774855821   10    8    7    5
 -0.0007358031325843655    9    7    8    8
 -0.008185881428159575   10    8    7    7
 -0.005925366474559729    9    7   10    6
 0.02287441217019046   10    8    9    5
 0.03579916399559383    9    7    9    7
 0.02783879240909927   10    8   10    8
 -0.004096431622775677    9    7   10    8
 -0.004096431622775675   10    8    9    7
 0.9504297507720346    9    9    1    1
 0.7367147860172513   10   10    2    2
 0.9506319032583624    9    9    2    2
 0.7366168614270724   10   10    1    1
 -0.01236968976156972    9    9    3    1
 -0.00501977308704688   10   10    4    2
 -0.01042183647994903    9    9    4    2
 -0.006014178095353625   10   10    3    1
 0.677819320899062    9    9    3    3
 0.571537578846792   10   10    4    4
 0.6574352943546482    9    9    4    4
 0.5850279473771847   10   10    3    3
 0.6369041984831534    9    9    5    5
 0.4920991908628972   10   10    6    6
 0.5748283499723029    9    9    6    6
 0.5519364959036966   10   10    5    5
 0.002090646964294526    9    9    8    6
 0.003557995933302755   10   10    7    5
 0.6369041984831534    9    9    7    7
 0.4920991908628971   10   10    8    8
 0.5515744225518733    9    9    8    8
 0.5744662766204783   10   10    7    7
 0.02917261443455411    9    9   10    6
 0.004462685483123406   10   10    9    5
 0.002601903483525187    9    9   10    8
 0.02894642936466352   10   10    9    7
 0.7085025264743416    9    9    9    9
 0.5477767756810954   10   10   10   10
 0.5876945789608765    9    9   10   10
 0.5876945789608765   10   10    9    9
 -0.3624122252630181   12    2    2    2
 -0.3613838009347369   12    2    1    1
 0.05400566209770908   12    2    4    2
 0.05956139040791292   12    2    3    1
 -0.01294103482538436   12    2    4    4
 -0.01534896437683595   12    2    3    3
 0.005334413392111154   11    1    5    1
 0.001876941283217009   11    1    6    2
 0.005353144912519308   11    1    5    3
 0.002213728787640825   11    1    6    4
 -0.004665083905857917   12    2    6    6
 -0.009619193196882979   12    2    5    5
 -0.02317079518848279   11    1    7    1
 0.006219835844301502   11    1    8    2
 -0.02325215825336788   11    1    7    3
 0.007335887268317145   11    1    8    4
 -0.004665083905857917   12    2    8    8
 -0.00961919319688298   12    2    7    7
 -0.02174731561727902   11    1    9    1
 -0.02108949744787782   11    1   10    2
 -0.02182368020629082   11    1    9    3
 -0.02487367507694537   11    1   10    4
 -0.004665083905857913   12    2   10   10
 -0.009619193196882987   12    2    9    9
 0.03624158428345594   11    1   11    1
 0.05169632239961223   12    2   12    2
 0.3871330234890914   12    4    2    2
 0.3868756416999061   12    4    1    1
 -0.01351071854607607   12    4    4    2
 -0.01549131621917634   12    4    3    1
 0.1487129207475186   12    4    4    4
 0.1614587902034406   12    4    3    3
 0.002983257829601622   11    3    5    1
 0.001066400561489611   11    3    6    2
 0.006623525519531856   11    3    5    3
 0.002396038644610232   11    3    6    4
 0.1020242512730424   12    4    6    6
 0.1533469112180315   12    4    5    5
 -0.01295821135016686   11    3    7    1
 0.003533853986826836   11    3    8    2
 -0.02877023994160742   11    3    7    3
 0.007940028374534412   11    3    8    4
 0.1020242512730424   12    4    8    8
 0.1533469112180315   12    4    7    7
 -0.01216213383162438   11    3    9    1
 -0.01198218192601302   11    3   10    2
 -0.02700276288773977   11    3    9    3
 -0.02692212661757567   11    3   10    4
 0.1020242512730424   12    4   10   10
 0.1533469112180316   12    4    9    9
 0.01879270770224538   11    3   11    1
 -0.01232161019068613   12    4   12    2
 0.03464944811900301   11    3   11    3
 0.09447896844129677   12    4   12    4
 0.07075900388586798   11    5    1    1
 0.07079608898531205   11    5    2    2
 -0.002257020696881803   11    5    3    1
 -0.001922661422955651   11    5    4    2
 0.0291913947658681   11    5    3    3
 0.02695058087587904   11    5    4    4
 0.00842679371793476   12    6    6    2
 -0.002488279930169512   12    6    5    1
 -0.0003190912432443823   12    6    6    4
 -0.002172020412654843   12    6    5    3
 0.03056093128354057   11    5    5    5
 0.01842780484221757   11    5    6    6
 -0.009094690785671629   12    6    7    1
 -0.007938758736006281   12    6    7    3
 -0.007620984426614995   11    5    7    5
 8.402407057074866e-05   11    5    8    6
 0.02705190355654979   11    5    7    7
 0.02040710755301693   11    5    8    8
 0.007556837487714418   12    6    9    1
 0.00659636605971121   12    6    9    3
 -0.007152795244694247   11    5    9    5
 0.0006945495342400951   11    5   10    6
 -0.003062938251701438   11    5   10    8
 0.0270519035565498   11    5    9    9
 0.01792679875978835   11    5   10   10
 -0.001766399287444561   11    5   12    2
 0.00108622852134073   12    6   11    1
 0.01664928891906507   11    5   12    4
 0.002743562264721334   12    6   11    3
 0.01729984786653131   11    5   11    5
 0.03875992701770167   12    6   12    6
 -0.3073519553631067   11    7    1    1
 -0.3075130398499283   11    7    2    2
 0.009803695450554107   11    7    3    1
 0.008351357642057678   11    7    4    2
 -0.1267970402118368   11    7    3    3
 -0.1170637413682885   11    7    4    4
 0.01176787311936909   12    8    5    1
 0.01027218052072629   12    8    5    3
 -0.1175038510690555   11    7    5    5
 -0.08099342896696006   11    7    6    6
 0.00842679371793476   12    8    8    2
 -0.002659628713433893   12    8    7    1
 -0.0003190912432443791   12    8    8    4
 -0.002321590824898734   12    8    7    3
 0.0017545138634954   11    7    7    5
 -0.0007824145786992061   11    7    8    6
 -0.1327458199222855   11    7    7    7
 -0.08098001375220823   11    7    8    8
 0.000673993817997634   12    8    9    1
 0.0005883294371121251   12    8    9    3
 0.002616666648364594   11    7   10    6
 -0.007152795244694264   11    7    9    7
 0.001305664036198584   11    7   10    8
 -0.1175038510690556   11    7    9    9
 -0.0845792495910809   11    7   10   10
 0.007672610482529893   11    7   12    2
 0.003599560174071014   12    8   11    1
 -0.07231859160897482   11    7   12    4
 0.009091657297845168   12    8   11    3
 -0.01370287400710092   11    7   11    5
 0.07366556553591183   11    7   11    7
 0.03875992701770166   12    8   12    8
 -0.2884700298154504   11    9    1    1
 -0.2886212182035683   11    9    2    2
 0.009201413134274175   11    9    3    1
 0.007838298556317074   11    9    4    2
 -0.1190073638126265   11    9    3    3
 -0.1098720225251961   11    9    4    4
 0.001156008455478052   12   10    5    1
 0.001009080181074653   12   10    5    3
 -0.1102850944327828   11    9    5    5
 -0.07524984994599235   11    9    6    6
 0.007498246790636341   12   10    7    1
 0.006545222219943717   12   10    7    3
 0.0006134730988644761   11    9    8    6
 -0.1102850944327828   11    9    7    7
 -0.0755038346950275   11    9    8    8
 0.008426793717934752   12   10   10    2
 0.009404821626759634   12   10    9    1
 -0.0003190912432443995   12   10   10    4
 0.008209472054580148   12   10    9    3
 0.001754513863495399   11    9    9    5
 -0.001801216880869378   11    9   10    6
 -0.007620984426614995   11    9    9    7
 0.0005628231263482451   11    9   10    8
 -0.1245906849221713   11    9    9    9
 -0.08065223700926533   11    9   10   10
 0.007201249694484339   11    9   12    2
 -0.012204970839239   12   10   11    1
 -0.06787575583505306   11    9   12    4
 -0.03082693630179204   12   10   11    3
 -0.01286104872414373   11    9   11    5
 0.05586382306570643   11    9   11    7
 0.0665770257922761   11    9   11    9
 0.03875992701770165   12   10   12   10
 0.8001281608446934   11   11    1    1
 0.7898375596180703   12   12    2    2
 0.8003798706315487   11   11    2    2
 0.7895853393240561   12   12    1    1
 -0.01518684323813736   11   11    3    1
 -0.01318594527393529   12   12    4    2
 -0.01301713544767635   11   11    4    2
 -0.01514070197520316   12   12    3    1
 0.5407124459481586   11   11    3    3
 0.5494973015730537   12   12    4    4
 0.5270966097449534   11   11    4    4
 0.5633039319423427   12   12    3    3
 0.5188983903722693   11   11    5    5
 0.4916302610968312   12   12    6    6
 0.4591113822984441   11   11    6    6
 0.5518777568413553   12   12    5    5
 -0.005565417123553687   11   11    7    5
 0.001039830879286863   11   11    8    6
 0.5417913054013357   11   11    7    7
 0.4916302610968311   12   12    8    8
 0.4622434026202502   11   11    8    8
 0.5518777568413554   12   12    7    7
 -0.005223510101538956   11   11    9    5
 -0.003525737852879011   11   11   10    6
 0.02268907072457509   11   11    9    7
 -0.01168364235526919   11   11   10    8
 0.5389122976508613   11   11    9    9
 0.4916302610968309   12   12   10   10
 0.4984131340243241   11   11   10   10
 0.5518777568413558   12   12    9    9
 -0.01215393641607694   12   12   12    2
 -0.01214950902836972   11   11   12    2
 0.1030512315201481   12   12   12    4
 0.1013771981272128   11   11   12    4
 0.01995154830083061   11   11   11    5
 0.01908360534889   12   12   11    5
 -0.08666243228455719   11   11   11    7
 -0.08289239668805769   12   12   11    7
 -0.08133839394472407   11   11   11    9
 -0.07779996751876329   12   12   11    9
 0.4907369043383944   11   11   11   11
 0.4835412980257836   12   12   12   12
 0.4690288307730285   11   11   12   12
 0.4690288307730283   12   12   11   11
 -0.0125403129204819   13    1    5    1
 -0.0004017809997974005   14    2    6    2
 -0.01774753548134313   13    1    6    2
 -0.004132477731806274   14    2    5    1
 -0.01258434758936264   13    1    5    3
 -0.0004769287776395219   14    2    6    4
 -0.02093205075514541   13    1    6    4
 -0.004172478135654743   14    2    5    3
 0.018727018572397   13    1    7    1
 -0.005496447806626188   14    2    8    2
 -0.01206647433464691   13    1    8    2
 0.02531477144202312   14    2    7    1
 0.01879277754246322   13    1    7    3
 -0.006524485067973611   14    2    8    4
 -0.01423161280471905   13    1    8    4
 0.02555980629683164   14    2    7    3
 -0.02302882497453119   13    1    9    1
 0.02550318941083219   14    2   10    2
 -0.005138224458363123   13    1   10    2
 0.02816769026510093   14    2    9    1
 -0.02310968951825481   13    1    9    3
 0.03027322087841554   14    2   10    4
 -0.00606019778164978   13    1   10    4
 0.02844034000678269   14    2    9    3
 -0.04261342723541021   14    2   11    1
 -0.0222015413724774   14    2   11    3
 -0.000233296013851318   14    2   12    6
 -0.01027090159703872   13    1   12    6
 -0.003191538087351853   14    2   12    8
 -0.006983142568985724   13    1   12    8
 0.01480854603140145   14    2   12   10
 -0.002973607115806216   13    1   12   10
 0.03624158428345591   13    1   13    1
 0.0506315612877884   14    2   14    2
 -0.004284307752409436   13    1   14    2
 -0.004284307752409438   14    2   13    1
 -0.007013139769221403   13    3    5    1
 -0.0002551397152670981   14    4    6    2
 -0.01008341708480224   13    3    6    2
 -0.002585911003207023   14    4    5    1
 -0.01557079973864838   13    3    5    3
 -0.0008032284462694061   14    4    6    4
 -0.02265589298936643   13    3    6    4
 -0.007232011799966828   14    4    5    3
 0.0104730399904549   13    3    7    1
 -0.003490364474851265   14    4    8    2
 -0.006855672641827465   13    3    8    2
 0.01584079824841201   14    4    7    1
 0.02325258211192528   13    3    7    3
 -0.01098833253424984   14    4    8    4
 -0.01540364585111439   13    3    8    4
 0.04430192675282801   14    4    7    3
 -0.01287881485026911   13    3    9    1
 0.01619508261456789   14    4   10    2
 -0.002919327043660396   13    3   10    2
 0.01762602121986859   14    4    9    1
 -0.02859396126464686   13    3    9    3
 0.05098520640773583   14    4   10    4
 -0.006559280504405574   13    3   10    4
 0.04929465603822646   14    4    9    3
 -0.02454691157487509   14    4   11    1
 -0.04173407728597413   14    4   11    3
 -0.0005240753986398427   14    4   12    6
 -0.02594192427530851   13    3   12    6
 -0.00716946066840704   14    4   12    8
 -0.01763780462861619   13    3   12    8
 0.03326586912723348   14    4   12   10
 -0.007510644503205492   13    3   12   10
 0.01879270770224535   13    3   13    1
 0.02931579171121269   14    4   14    2
 -0.002232118888069723   13    3   14    2
 -0.002467919864247782   14    4   13    1
 0.03464944811900297   13    3   13    3
 0.05441972339903882   14    4   14    4
 -0.004195898862304508   13    3   14    4
 -0.004195898862304509   14    4   13    3
 -0.1663425732963682   13    5    1    1
 -0.006335208851069935   14    6    2    2
 -0.1664297541572298   13    5    2    2
 -0.006332363098376152   14    6    1    1
 0.005305877840056259   13    5    3    1
 0.0001474409315711256   14    6    4    2
 0.004519855157768479   13    5    4    2
 0.0001739274868034593   14    6    3    1
 -0.06862408254498374   13    5    3    3
 -0.002681299687137419   14    6    4    4
 -0.06335630419496277   13    5    4    4
 -0.002889238115212856   14    6    3    3
 -0.07184363364183692   13    5    5    5
 -0.002008532661552486   14    6    6    6
 -0.04247721433998391   13    5    6    6
 -0.002100288861561734   14    6    5    5
 0.006159405222661771   13    5    7    5
 -0.001044311361734002   14    6    8    6
 -0.002272860659532084   13    5    8    6
 -0.0006776727381192103   14    6    7    5
 -0.063594496856115   13    5    7    7
 -0.001855857887669809   14    6    8    8
 -0.04720930337824879   13    5    8    8
 -0.01493071544903973   14    6    7    7
 -0.007574289749942591   13    5    9    5
 0.004845542321002102   14    6   10    6
 -9.825974675597469e-05   13    5   10    6
 -0.00270245000835965   14    6    9    5
 -0.0009458063306751738   13    5   10    8
 -0.00173046369324281   14    6    9    7
 -0.06359449685611503   13    5    9    9
 -0.001855857887669818   14    6   10   10
 -0.04375076347160874   13    5   10   10
 0.008706351711033591   14    6    9    9
 0.0001349198330261989   14    6   12    2
 0.004152509034982088   13    5   12    2
 -0.001551186494695073   14    6   12    4
 -0.03913969120903801   13    5   12    4
 -0.0074161601516549   13    5   11    5
 0.002508059015561345   14    6   11    5
 0.02961554363677378   13    5   11    7
 0.01249252378235523   14    6   11    7
 0.02484519783794197   13    5   11    9
 -0.006857645368034377   14    6   11    9
 -0.04422135824836278   13    5   11   11
 -0.001863807061719072   14    6   12   12
 -0.04486236163848391   13    5   12   12
 -0.002340216236792049   14    6   11   11
 0.03157930381611877   13    5   13    5
 0.01461284658772862   14    6   14    6
 0.002126415882847351   13    5   14    6
 0.002126415882847352   14    6   13    5
 0.2484069160996417   13    7    1    1
 -0.08666697731236875   14    8    2    2
 0.2485371072368856   13    7    2    2
 -0.08662804682247541   14    8    1    1
 -0.007923508247654245   13    7    3    1
 0.002017022669936312   14    8    4    2
 -0.006749704893394493   13    7    4    2
 0.002379364265196548   14    8    3    1
 0.1024794577681266   13    7    3    3
 -0.03668073849113189   14    8    4    4
 0.09461284521853137   13    7    4    4
 -0.03952537952066004   14    8    3    3
 0.09496854913257972   13    7    5    5
 -0.0253885226559653   14    8    6    6
 0.0692124905207494   13    7    6    6
 -0.0388308544426282   14    8    5    5
 -0.004124568392860971   13    7    7    5
 -7.633738694131277e-05   14    8    8    6
 0.001994726420490328   13    7    8    6
 0.008239093414452094   14    8    7    5
 0.1072873595779033   13    7    7    7
 -0.0274771453794333   14    8    8    8
 0.06592530302661082   13    7    8    8
 -0.03982828945133596   14    8    7    7
 -0.001097434424224971   13    7   10    6
 0.008767131192571229   14    8    9    5
 -0.007574289749942583   13    7    9    7
 0.004845542321002094   14    8   10    8
 -0.0009762683216503877   13    7   10    8
 -0.001543132857024084   14    8    9    7
 0.09496854913257978   13    7    9    9
 -0.02538852265596526   14    8   10   10
 0.06413015605945856   13    7   10   10
 -0.03522383848920611   14    8    9    9
 0.001845731432499718   14    8   12    2
 -0.006201130251952901   13    7   12    2
 -0.02122055450788895   14    8   12    4
 0.05844907769345935   13    7   12    4
 0.01367250795833712   13    7   11    5
 -0.01762911491153642   14    8   11    5
 -0.04810537863557608   13    7   11    7
 0.02097285372066165   14    8   11    7
 -0.03233223627675295   13    7   11    9
 0.01645712964567941   14    8   11    9
 0.06603776177396123   13    7   11   11
 -0.02549726901353191   14    8   12   12
 0.06699500123583793   13    7   12   12
 -0.02644483556802478   14    8   11   11
 -0.02603520925118016   13    7   13    5
 0.0003763404891832705   14    8   14    6
 -0.007387867550210925   13    7   14    6
 0.007705570443425857   14    8   13    5
 0.05302471262810764   13    7   13    7
 0.01973375305685969   14    8   14    8
 -0.01713417322538614   13    7   14    8
 -0.01713417322538615   14    8   13    7
 -0.3054687734305746   13    9    1    1
 0.4021295963907907   14   10    2    2
 -0.3056288709336146   13    9    2    2
 0.4019489612437764   14   10    1    1
 0.009743627044212859   13    9    3    1
 -0.009358864671709339   14   10    4    2
 0.008300187881952997   13    9    4    2
 -0.0110401080238621   14   10    3    1
 -0.1260201396876693   13    9    3    3
 0.1701964349303538   14   10    4    4
 -0.1163464779220907   13    9    4    4
 0.1833953993404993   14   10    3    3
 -0.1167838910184524   13    9    5    5
 0.1178012281633449   14   10    6    6
 -0.083475093267794   13    9    6    6
 0.1678808462095636   14   10    5    5
 -0.001310976999820502   13    9    8    6
 -4.593763630724488e-05   14   10    7    5
 -0.1167838910184524   13    9    7    7
 0.1178012281633448   14   10    8    8
 -0.08027264252351221   13    9    8    8
 0.1782616612344397   14   10    7    7
 -0.004124568392860952   13    9    9    5
 -7.633738694133964e-05   14   10   10    6
 -0.002614949612520046   13    9   10    6
 -0.0001681237455582966   14   10    9    5
 0.006159405222661749   13    9    9    7
 -0.001044311361733977   14   10   10    8
 -0.001486374351435282   13    9   10    8
 0.01198392064033569   14   10    9    7
 -0.1319324705183376   13    9    9    9
 0.1274923128053489   14   10   10   10
 -0.08129429889183484   13    9   10   10
 0.1822677263231787   14   10    9    9
 -0.008564083564628712   14   10   12    2
 0.007625599486881621   13    9   12    2
 0.09846210499172792   14   10   12    4
 -0.07187548700941801   13    9   12    4
 -0.008229940058089255   13    9   11    5
 0.01639124335079844   14   10   11    5
 0.04633789788343048   13    9   11    7
 -0.08837320398067733   14   10   11    7
 0.05552153878723094   13    9   11    9
 -0.08726062113073504   14   10   11    9
 -0.0812073770164306   13    9   11   11
 0.1183058047648758   14   10   12   12
 -0.08238450512900528   13    9   12   12
 0.120478161388803   14   10   11   11
 0.03201578909653325   13    9   13    5
 -0.001746197383523934   14   10   14    6
 -0.008180018665770129   13    9   14    6
 -0.03802915650657979   14   10   13    5
 -0.04781063126753968   13    9   13    7
 -0.02388834410648144   14   10   14    8
 0.00934698515544103   13    9   14    8
 0.05405836531488138   14   10   13    7
 0.0729384227504926   13    9   13    9
 0.1254258260663033   14   10   14   10
 -0.07377600983476482   13    9   14   10
 -0.0737760098347648   14   10   13    9
 -0.0002842319468482098   14   12    6    2
 -0.002887422840386601   14   12    5    1
 -0.001420046919377536   14   12    6    4
 -0.01100044797502785   14   12    5    3
 -0.003012070655955067   13   11    5    5
 -0.002967029337542778   13   11    6    6
 -0.003888352265574317   14   12    8    2
 0.01768780233182649   14   12    7    1
 -0.01942653778863286   14   12    8    4
 0.06738664895986685   14   12    7    3
 0.008790712936127848   13   11    7    5
 -0.005924728248777406   13   11    8    6
 -0.01953798143767002   13   11    7    7
 -0.00668486155080182   13   11    8    8
 0.01804172218381342   14   12   10    2
 0.01968117858358989   14   12    9    1
 0.09013797460660342   14   12   10    4
 0.07498097544557249   14   12    9    3
 0.003374140348671801   13   11    9    5
 0.01623941353532911   13   11   10    6
 0.002844197096613013   13   11    9    7
 0.009909830741264359   13   11   10    8
 0.02255005209362471   13   11    9    9
 0.009651890888344285   13   11   10   10
 -0.02724562346279901   14   12   11    1
 -0.02567353449140891   14   12   11    3
 -0.001340695989578275   13   11   11    5
 -9.768423543563349e-07   14   12   12    6
 0.002002122184348656   13   11   11    7
 -1.336340697739357e-05   14   12   12    8
 -0.002462032126616735   13   11   11    9
 6.200540991367675e-05   14   12   12   10
 0.0325539128860693   14   12   14    2
 -0.00273924543022677   14   12   13    1
 0.04454888573971606   14   12   14    4
 -0.002581189310253224   14   12   13    3
 0.0005703068724764681   13   11   13    5
 0.002513203141391251   13   11   14    6
 -0.002477210288253708   13   11   13    7
 0.001637575293885103   13   11   14    8
 -0.002325024823308622   13   11   13    9
 0.001038918016299103   13   11   14   10
 0.02274618496305385   13   11   13   11
 0.08601438426490891   14   12   14   12
 0.8001281608446927   13   13    1    1
 1.01429698787266   14   14    2    2
 0.800379870631548   13   13    2    2
 1.013941050189656   14   14    1    1
 -0.01518684323813736   13   13    3    1
 -0.01841919884057861   14   14    4    2
 -0.01301713544767635   13   13    4    2
 -0.02154235490435358   14   14    3    1
 0.5407124459481581   13   13    3    3
 0.6129943252528095   14   14    4    4
 0.527096609744953   13   13    4    4
 0.6335038194700359   14   14    3    3
 0.5246979860348782   13   13    5    5
 0.5180976569538482   14   14    6    6
 0.4868525267735938   13   13    6    6
 0.6038207089753357   14   14    5    5
 -0.01057419044404367   13   13    7    5
 0.000154508163145216   14   14    8    6
 0.0190744290573866   13   13    8    6
 -0.004210613464274253   14   14    7    5
 0.5334080307570294   13   13    7    7
 0.5202000665401824   14   14    8    8
 0.4717662193068243   13   13    8    8
 0.6289267687809682   14   14    7    7
 0.01300320069859755   13   13    9    5
 -0.0007169086451554185   14   14   10    6
 0.008122397246605885   13   13   10    6
 -0.004685140300767422   14   14    9    5
 -0.01941826990501316   13   13    9    7
 -0.009807459666342808   14   14   10    8
 0.005522383545310092   13   13   10    8
 0.02870027706982914   14   14    9    7
 0.5414959766325573   13   13    9    9
 0.5635923895271502   14   14   10   10
 0.4611491728625993   13   13   10   10
 0.6350680876237588   14   14    9    9
 -0.01710361831939485   14   14   12    2
 -0.01214950902836976   13   13   12    2
 0.1526998580722022   14   14   12    4
 0.1013771981272129   13   13   12    4
 0.01881093455587766   13   13   11    5
 0.02961565508621382   14   14   11    5
 -0.08170801170804966   13   13   11    7
 -0.1327376819874127   14   14   11    7
 -0.07668834429810656   13   13   11    9
 -0.1270357531608414   14   14   11    9
 0.4452445344122861   13   13   11   11
 0.5292763265175535   14   14   12   12
 0.4690288307730275   13   13   12   12
 0.5524253145916717   14   14   11   11
 -0.04690275022751929   13   13   13    5
 -0.002919155444759461   14   14   14    6
 -0.001292140900056916   13   13   14    6
 -0.06398490768591805   14   14   13    5
 0.07004200614265847   13   13   13    7
 -0.03993465482349772   14   14   14    8
 -0.02431706234509341   13   13   14    8
 0.09448066540546685   14   14   13    7