 &FCI NORB=  12,NELEC=12,MS2=0,
  ORBSYM=3,2,1,1,4,1,5,3,2,1,5,6
  ISYM=1,
 &END
 0.5192717990625102    1    1    1    1
 0.487332086117106    1    1    2    2
 0.5017968994582407    1    1    3    3
 0.007575626614258053    1    1    4    3
 0.4584812062184005    1    1    4    4
 0.4584812062184003    1    1    5    5
 0.02441225407906472    1    1    6    3
 -0.004546642413175158    1    1    6    4
 0.2880517218771034    1    1    6    6
 0.1752417451762607    1    1    7    7
 -0.01139551671800433    1    1    8    1
 0.1392027487377966    1    1    8    8
 -0.01106566591895264    1    1    9    2
 0.1368313513705527    1    1    9    9
 0.009408715691543454    1    1   10    3
 -0.0008529784196381828    1    1   10    4
 0.02889654706594577    1    1   10    6
 0.09287055903100808    1    1   10   10
 -0.04744458711909091    1    1   11    7
 0.09612576441050781    1    1   11   11
 0.08206268827831165    1    1   12   12
 0.01596985647270221    2    1    2    1
 -0.00757562661426012    2    1    5    3
 0.004546642413183397    2    1    6    5
 -0.0001649253995281112    2    1    8    2
 -0.0001649253995281268    2    1    9    1
 0.001185698683640235    2    1    9    8
 0.0008529784196391138    2    1   10    5
 0.4873320861171062    2    2    1    1
 0.5192717990625112    2    2    2    2
 0.5017968994582414    2    2    3    3
 -0.007575626614262196    2    2    4    3
 0.4584812062183989    2    2    4    4
 0.4584812062184006    2    2    5    5
 0.02441225407906378    2    2    6    3
 0.004546642413191241    2    2    6    4
 0.2880517218771045    2    2    6    6
 0.1752417451762547    2    2    7    7
 -0.01106566591894807    2    2    8    1
 0.1368313513705169    2    2    8    8
 -0.0113955167180089    2    2    9    2
 0.1392027487378342    2    2    9    9
 0.009408715691543312    2    2   10    3
 0.0008529784196400388    2    2   10    4
 0.02889654706594608    2    2   10    6
 0.0928705590310079    2    2   10   10
 -0.04744458711912113    2    2   11    7
 0.09612576441016267    2    2   11   11
 0.08243265044825941    2    2   12   12
 0.01099394834067366    3    1    3    1
 -0.003023988386604707    3    1    4    1
 0.003023988386604625    3    1    5    2
 0.001471223131990011    3    1    6    1
 -0.0002370415677297841    3    1    8    3
 0.001078438814900182    3    1    8    4
 -0.002351280873491079    3    1    8    6
 -0.001078438814900395    3    1    9    5
 0.0004311931722389633    3    1   10    1
 0.0002019245681545305    3    1   10    8
 0.01099394834067344    3    2    3    2
 0.00302398838660428    3    2    4    2
 0.003023988386604354    3    2    5    1
 0.001471223131990146    3    2    6    2
 -0.001078438814900082    3    2    8    5
 -0.0002370415677298731    3    2    9    3
 -0.001078438814900309    3    2    9    4
 -0.002351280873491885    3    2    9    6
 0.0004311931722389559    3    2   10    2
 0.0002019245681544847    3    2   10    9
 -0.0007516308419730436    3    2   12    7
 -0.0001539573803093289    3    2   12   11
 0.5017968994582402    3    3    1    1
 0.5017968994582411    3    3    2    2
 0.5352231911573709    3    3    3    3
 0.4592623086272213    3    3    4    4
 0.4592623086272222    3    3    5    5
 0.03202474398930321    3    3    6    3
 0.2851387308169387    3    3    6    6
 0.1787939230090007    3    3    7    7
 -0.01319540985102659    3    3    8    1
 0.1371437765926025    3    3    8    8
 -0.01319540985103204    3    3    9    2
 0.1371437765926386    3    3    9    9
 0.0112902069051678    3    3   10    3
 0.02783096570293435    3    3   10    6
 0.09306472753849335    3    3   10   10
 -0.04922386922078884    3    3   11    7
 0.0971661790737561    3    3   11   11
 0.08233867672642629    3    3   12   12
 -0.003023988386604707    4    1    3    1
 0.01557522880050053    4    1    4    1
 -0.00759636663544366    4    1    5    2
 -0.006646284655823858    4    1    6    1
 0.001408965288023892    4    1    8    3
 0.0009431976373482306    4    1    8    4
 -0.002979719812452751    4    1    8    6
 -0.0006528558335493899    4    1    9    5
 -0.001581471381733342    4    1   10    1
 7.289648564577698e-08    4    1   10    8
 0.003023988386604283    4    2    3    2
 0.0155752288004987    4    2    4    2
 0.007596366635442739    4    2    5    1
 0.006646284655824121    4    2    6    2
 0.0006528558335488578    4    2    8    5
 -0.001408965288024057    4    2    9    3
 0.0009431976373476866    4    2    9    4
 0.002979719812452876    4    2    9    6
 0.001581471381733298    4    2   10    2
 -7.289648548654799e-08    4    2   10    9
 0.0004412754685210247    4    2   12    7
 0.000343012106384434    4    2   12   11
 0.007575626614258056    4    3    1    1
 -0.007575626614262194    4    3    2    2
 0.01528909508015058    4    3    4    3
 -0.002601034020132691    4    3    6    4
 0.0001620984655033623    4    3    8    1
 0.001368384767971988    4    3    8    8
 -0.0001620984655031213    4    3    9    2
 -0.001368384767972724    4    3    9    9
 -0.0002763585561827093    4    3   10    4
 -0.0002108589035402634    4    3   12   12
 0.4584812062184003    4    4    1    1
 0.458481206218399    4    4    2    2
 0.4592623086272211    4    4    3    3
 0.4545137555053984    4    4    4    4
 0.4420274948364992    4    4    5    5
 0.01791805046168403    4    4    6    3
 0.2804696974019488    4    4    6    6
 0.1722158546991517    4    4    7    7
 -0.009102945815663021    4    4    8    1
 0.1378013639374925    4    4    8    8
 -0.009102945815667042    4    4    9    2
 0.1378013639375284    4    4    9    9
 0.007542934192439806    4    4   10    3
 0.02741323906875965    4    4   10    6
 0.09226834593194233    4    4   10   10
 -0.04584079738311805    4    4   11    7
 0.09518982487950138    4    4   11   11
 0.082127433699168    4    4   12   12
 0.003023988386604357    5    1    3    2
 0.007596366635442744    5    1    4    2
 0.01557522880049961    5    1    5    1
 0.006646284655824457    5    1    6    2
 0.0009431976373478062    5    1    8    5
 -0.001408965288024193    5    1    9    3
 0.0006528558335489842    5    1    9    4
 0.00297971981245332    5    1    9    6
 0.001581471381733388    5    1   10    2
 -7.289648551143131e-08    5    1   10    9
 0.0004412754685211718    5    1   12    7
 0.000343012106385333    5    1   12   11
 0.003023988386604626    5    2    3    1
 -0.007596366635443663    5    2    4    1
 0.01557522880049963    5    2    5    2
 0.006646284655823637    5    2    6    1
 -0.001408965288023751    5    2    8    3
 -0.0006528558335492706    5    2    8    4
 0.002979719812452303    5    2    8    6
 0.0009431976373480801    5    2    9    5
 0.00158147138173325    5    2   10    1
 -7.289648562113128e-08    5    2   10    8
 -0.007575626614260122    5    3    2    1
 0.01528909508015063    5    3    5    3
 -0.002601034020132862    5    3    6    5
 -0.0001620984655032188    5    3    8    2
 -0.00016209846550326    5    3    9    1
 -0.001368384767972366    5    3    9    8
 -0.0002763585561826776    5    3   10    5
 0.00624313033444989    5    4    5    4
 0.4584812062184001    5    5    1    1
 0.4584812062184004    5    5    2    2
 0.4592623086272219    5    5    3    3
 0.4420274948364994    5    5    4    4
 0.4545137555053998    5    5    5    5
 0.01791805046168406    5    5    6    3
 0.2804696974019492    5    5    6    6
 0.1722158546991304    5    5    7    7
 -0.009102945815663161    5    5    8    1
 0.1378013639374921    5    5    8    8
 -0.009102945815666936    5    5    9    2
 0.1378013639375288    5    5    9    9
 0.007542934192439806    5    5   10    3
 0.02741323906875968    5    5   10    6
 0.09226834593194193    5    5   10   10
 -0.04584079738336378    5    5   11    7
 0.09518982487679736    5    5   11   11
 0.08212743369917025    5    5   12   12
 0.001471223131990011    6    1    3    1
 -0.006646284655823858    6    1    4    1
 0.006646284655823639    6    1    5    2
 0.01044127087792329    6    1    6    1
 -0.001950798118347104    6    1    8    3
 -0.001974891707283806    6    1    8    4
 0.005144562123559748    6    1    8    6
 0.001974891707284065    6    1    9    5
 0.002318231794692002    6    1   10    1
 -7.092307105268987e-05    6    1   10    8
 0.001471223131990147    6    2    3    2
 0.00664628465582412    6    2    4    2
 0.006646284655824458    6    2    5    1
 0.01044127087792472    6    2    6    2
 0.00197489170728352    6    2    8    5
 -0.001950798118347883    6    2    9    3
 0.001974891707283794    6    2    9    4
 0.005144562123561874    6    2    9    6
 0.002318231794692328    6    2   10    2
 -7.092307105254866e-05    6    2   10    9
 0.0008095049027969697    6    2   12    7
 0.0006198092674050648    6    2   12   11
 0.02441225407906475    6    3    1    1
 0.02441225407906378    6    3    2    2
 0.03202474398930322    6    3    3    3
 0.01791805046168403    6    3    4    4
 0.01791805046168406    6    3    5    5
 0.009345127152240255    6    3    6    3
 0.003457117467432678    6    3    6    6
 0.006107999678221598    6    3    7    7
 -0.002691831598691713    6    3    8    1
 -0.0008519925474998307    6    3    8    8
 -0.002691831598692706    6    3    9    2
 -0.0008519925475006203    6    3    9    9
 0.002055264050099733    6    3   10    3
 8.84009045854576e-05    6    3   10    6
 0.0008524541038424626    6    3   10   10
 -0.003006621879346811    6    3   11    7
 0.001764188268444976    6    3   11   11
 0.0002084476024334903    6    3   12   12
 -0.004546642413175161    6    4    1    1
 0.004546642413191242    6    4    2    2
 -0.002601034020132689    6    4    4    3
 0.00921501168313367    6    4    6    4
 -0.0007776189805266406    6    4    8    1
 -0.002825839906729047    6    4    8    8
 0.0007776189805260445    6    4    9    2
 0.00282583990673069    6    4    9    9
 0.00172744073539514    6    4   10    4
 0.0005344400228099219    6    4   12   12
 0.0045466424131834    6    5    2    1
 -0.002601034020132863    6    5    5    3
 0.009215011683134036    6    5    6    5
 0.0007776189805262027    6    5    8    2
 0.0007776189805264999    6    5    9    1
 0.002825839906729887    6    5    9    8
 0.00172744073539517    6    5   10    5
 0.2880517218771032    6    6    1    1
 0.2880517218771046    6    6    2    2
 0.2851387308169385    6    6    3    3
 0.2804696974019487    6    6    4    4
 0.2804696974019492    6    6    5    5
 0.003457117467432669    6    6    6    3
 0.2314499396940006    6    6    6    6
 0.1616499775069397    6    6    7    7
 -0.002250168240993564    6    6    8    1
 0.1308908426299045    6    6    8    8
 -0.002250168240994312    6    6    9    2
 0.1308908426299376    6    6    9    9
 0.00195970717398222    6    6   10    3
 0.01745576429846777    6    6   10    6
 0.09044532449750939    6    6   10   10
 -0.03951373750121252    6    6   11    7
 0.09154701105384754    6    6   11   11
 0.08151447890005729    6    6   12   12
 0.001111654908884839    7    1    7    1
 -0.001036440808665647    7    1    8    7
 -0.0006464223839653829    7    1   11    1
 0.0003956566030336855    7    1   11    8
 -0.0001222425355983234    7    1   12    5
 0.001111654908884699    7    2    7    2
 -0.001036440808665667    7    2    9    7
 -0.000646422383966191    7    2   11    2
 0.0003956566030330474    7    2   11    9
 -5.387456680402399e-05    7    2   12    3
 -0.0001222425355982532    7    2   12    4
 -0.0003792763729627894    7    2   12    6
 0.0002085361661606467    7    2   12   10
 0.003330404518246421    7    3    7    3
 0.006695371877579982    7    3    7    6
 -0.001807549147661535    7    3   10    7
 -0.001900627718321369    7    3   11    3
 -0.003434808320928396    7    3   11    6
 -0.001007556929136135    7    3   11   10
 -0.000671279553358027    7    3   12    2
 0.001462223475186173    7    3   12    9
 0.001233052388417129    7    4    7    4
 -0.0006986681786384822    7    4   11    4
 -5.051897384503882e-05    7    4   12    2
 0.0003201475538538348    7    4   12    9
 0.00123305238841626    7    5    7    5
 -0.0006986681786479439    7    5   11    5
 -5.051897384560769e-05    7    5   12    1
 0.0003201475538549828    7    5   12    8
 0.006695371877580221    7    6    7    3
 0.03132631629484545    7    6    7    6
 -0.01007947658898048    7    6   10    7
 -0.003730265255473551    7    6   11    3
 -0.01555850065571703    7    6   11    6
 -0.006345911798712016    7    6   11   10
 -0.002255979784671311    7    6   12    2
 0.009618413861201222    7    6   12    9
 0.1752417451762468    7    7    1    1
 0.1752417451762475    7    7    2    2
 0.1787939230089975    7    7    3    3
 0.1722158546991442    7    7    4    4
 0.1722158546991217    7    7    5    5
 0.006107999678221929    7    7    6    3
 0.1616499775069491    7    7    6    6
 0.1443801029138692    7    7    7    7
 -0.002648942097795856    7    7    8    1
 0.1095692158514307    7    7    8    8
 -0.002648942097796808    7    7    9    2
 0.1095692158514535    7    7    9    9
 0.0009879006404938781    7    7   10    3
 0.005476075192070239    7    7   10    6
 0.09130463034516326    7    7   10   10
 -0.02891041865193092    7    7   11    7
 0.08615898337920984    7    7   11   11
 0.07991233657471751    7    7   12   12
 -0.01139551671800434    8    1    1    1
 -0.01106566591894807    8    1    2    2
 -0.01319540985102658    8    1    3    3
 0.0001620984655033629    8    1    4    3
 -0.009102945815663004    8    1    4    4
 -0.009102945815663163    8    1    5    5
 -0.002691831598691715    8    1    6    3
 -0.0007776189805266406    8    1    6    4
 -0.002250168240993596    8    1    6    6
 -0.002648942097795697    8    1    7    7
 0.001515731600101609    8    1    8    1
 0.0003790935963209769    8    1    8    8
 0.00104235884894853    8    1    9    2
 -0.0002773530160397432    8    1    9    9
 -0.0006435705194118727    8    1   10    3
 -0.0001651817731987271    8    1   10    4
 -0.0001714250129262217    8    1   10    6
 -0.0003833631561068714    8    1   10   10
 0.001299884212705285    8    1   11    7
 -0.0007688454214706068    8    1   11   11
 -0.0001923220692552462    8    1   12   12
 -0.0001649253995281115    8    2    2    1
 -0.0001620984655032189    8    2    5    3
 0.000777618980526203    8    2    6    5
 0.0002366863755767265    8    2    8    2
 0.0002366863755768028    8    2    9    1
 0.0003282233061803579    8    2    9    8
 0.0001651817731986686    8    2   10    5
 -0.000237041567729784    8    3    3    1
 0.001408965288023892    8    3    4    1
 -0.001408965288023751    8    3    5    2
 -0.001950798118347104    8    3    6    1
 0.0008497866898857792    8    3    8    3
 0.000984552878139554    8    3    8    4
 -0.002530677987193555    8    3    8    6
 -0.000984552878139673    8    3    9    5
 -0.000448091858817617    8    3   10    1
 0.0003284366314168255    8    3   10    8
 0.001078438814900182    8    4    3    1
 0.000943197637348232    8    4    4    1
 -0.0006528558335492712    8    4    5    2
 -0.001974891707283806    8    4    6    1
 0.0009845528781395538    8    4    8    3
 0.00200595268423441    8    4    8    4
 -0.004233456059055331    8    4    8    6
 -0.001152360399066828    8    4    9    5
 -0.0004981467009893419    8    4   10    1
 0.0007695322415163693    8    4   10    8
 -0.001078438814900082    8    5    3    2
 0.0006528558335488575    8    5    4    2
 0.0009431976373478067    8    5    5    1
 0.001974891707283519    8    5    6    2
 0.00200595268423389    8    5    8    5
 -0.0009845528781397184    8    5    9    3
 0.001152360399066346    8    5    9    4
 0.004233456059055839    8    5    9    6
 0.0004981467009892807    8    5   10    2
 -0.0007695322415162651    8    5   10    9
 0.00147781801500653    8    5   12    7
 0.0006632886909026023    8    5   12   11
 -0.00235128087349108    8    6    3    1
 -0.002979719812452753    8    6    4    1
 0.002979719812452302    8    6    5    2
 0.005144562123559748    8    6    6    1
 -0.002530677987193555    8    6    8    3
 -0.004233456059055334    8    6    8    4
 0.0132921951521188    8    6    8    6
 0.004233456059055814    8    6    9    5
 0.001312495547918479    8    6   10    1
 -0.00366977416776154    8    6   10    8
 -0.001036440808665774    8    7    7    1
 0.006760776883535166    8    7    8    7
 0.0005861392926771211    8    7   11    1
 0.000112750474406783    8    7   11    8
 0.0004337754014874903    8    7   12    5
 0.1392027487377965    8    8    1    1
 0.1368313513705169    8    8    2    2
 0.1371437765926024    8    8    3    3
 0.001368384767971987    8    8    4    3
 0.1378013639374925    8    8    4    4
 0.1378013639374921    8    8    5    5
 -0.0008519925474998299    8    8    6    3
 -0.002825839906729045    8    8    6    4
 0.1308908426299047    8    8    6    6
 0.1095692158514363    8    8    7    7
 0.0003790935963209739    8    8    8    1
 0.1091885901698312    8    8    8    8
 -0.0002773530160398278    8    8    9    2
 0.09816672607648236    8    8    9    9
 0.0001964028786760249    8    8   10    3
 -0.0002991484645798494    8    8   10    4
 0.004543196598029577    8    8   10    6
 0.07960043690713309    8    8   10   10
 -0.01551080648161045    8    8   11    7
 0.07710470882574252    8    8   11   11
 0.07332206716737903    8    8   12   12
 -0.0001649253995281272    9    1    2    1
 -0.0001620984655032602    9    1    5    3
 0.0007776189805265002    9    1    6    5
 0.0002366863755768028    9    1    8    2
 0.0002366863755768797    9    1    9    1
 0.000328223306180438    9    1    9    8
 0.0001651817731987342    9    1   10    5
 -0.01106566591895265    9    2    1    1
 -0.01139551671800889    9    2    2    2
 -0.01319540985103203    9    2    3    3
 -0.0001620984655031208    9    2    4    3
 -0.009102945815667028    9    2    4    4
 -0.009102945815666947    9    2    5    5
 -0.002691831598692707    9    2    6    3
 0.000777618980526044    9    2    6    4
 -0.002250168240994318    9    2    6    6
 -0.002648942097797377    9    2    7    7
 0.001042358848948532    9    2    8    1
 -0.0002773530160398366    9    2    8    8
 0.001515731600102666    9    2    9    2
 0.000379093596321039    9    2    9    9
 -0.0006435705194121423    9    2   10    3
 0.0001651817731986737    9    2   10    4
 -0.0001714250129262892    9    2   10    6
 -0.0003833631561069731    9    2   10   10
 0.001299884212695076    9    2   11    7
 -0.0007688454215957315    9    2   11   11
 -7.849728934923963e-05    9    2   12   12
 -0.0002370415677298731    9    3    3    2
 -0.001408965288024058    9    3    4    2
 -0.001408965288024193    9    3    5    1
 -0.001950798118347883    9    3    6    2
 -0.0009845528781397175    9    3    8    5
 0.000849786689886286    9    3    9    3
 -0.0009845528781398545    9    3    9    4
 -0.002530677987195273    9    3    9    6
 -0.0004480918588178083    9    3   10    2
 0.0003284366314169712    9    3   10    9
 -0.0006863551804755561    9    3   12    7
 -0.0003894284614450417    9    3   12   11
 -0.001078438814900309    9    4    3    2
 0.0009431976373476874    9    4    4    2
 0.000652855833548985    9    4    5    1
 0.001974891707283793    9    4    6    2
 0.001152360399066347    9    4    8    5
 -0.0009845528781398539    9    4    9    3
 0.002005952684234607    9    4    9    4
 0.004233456059056385    9    4    9    6
 0.0004981467009893547    9    4   10    2
 -0.0007695322415163568    9    4   10    9
 0.001477818015006817    9    4   12    7
 0.0006632886909044771    9    4   12   11
 -0.001078438814900395    9    5    3    1
 -0.0006528558335493901    9    5    4    1
 0.0009431976373480799    9    5    5    2
 0.001974891707284065    9    5    6    1
 -0.0009845528781396717    9    5    8    3
 -0.00115236039906683    9    5    8    4
 0.004233456059055818    9    5    8    6
 0.002005952684235052    9    5    9    5
 0.0004981467009894083    9    5   10    1
 -0.0007695322415164762    9    5   10    8
 -0.002351280873491884    9    6    3    2
 0.002979719812452873    9    6    4    2
 0.002979719812453318    9    6    5    1
 0.005144562123561873    9    6    6    2
 0.004233456059055837    9    6    8    5
 -0.002530677987195272    9    6    9    3
 0.004233456059056384    9    6    9    4
 0.013292195152126    9    6    9    6
 0.001312495547919014    9    6   10    2
 -0.003669774167762816    9    6   10    9
 0.005599682792650461    9    6   12    7
 0.00304743910576614    9    6   12   11
 -0.001036440808665724    9    7    7    2
 0.006760776883536772    9    7    9    7
 0.0005861392926775481    9    7   11    2
 0.0001127504744027207    9    7   11    9
 1.783986695792251e-05    9    7   12    3
 0.0004337754014875029    9    7   12    4
 0.002086090355874324    9    7   12    6
 -0.004731880868948935    9    7   12   10
 0.001185698683640234    9    8    2    1
 -0.001368384767972367    9    8    5    3
 0.002825839906729889    9    8    6    5
 0.0003282233061803582    9    8    8    2
 0.0003282233061804383    9    8    9    1
 0.005510932046683759    9    8    9    8
 0.0002991484645798841    9    8   10    5
 0.1368313513705527    9    9    1    1
 0.1392027487378342    9    9    2    2
 0.1371437765926386    9    9    3    3
 -0.001368384767972726    9    9    4    3
 0.1378013639375283    9    9    4    4
 0.1378013639375287    9    9    5    5
 -0.0008519925475006177    9    9    6    3
 0.002825839906730688    9    9    6    4
 0.1308908426299376    9    9    6    6
 0.1095692158514562    9    9    7    7
 -0.0002773530160397515    9    9    8    1
 0.09816672607648244    9    9    8    8
 0.0003790935963210383    9    9    9    2
 0.1091885901698686    9    9    9    9
 0.0001964028786760738    9    9   10    3
 0.0002991484645799795    9    9   10    4
 0.004543196598031813    9    9   10    6
 0.0796004369071419    9    9   10   10
 -0.01551080648159115    9    9   11    7
 0.07710470882617247    9    9   11   11
 0.07957146660428779    9    9   12   12
 0.0004311931722389628   10    1    3    1
 -0.001581471381733345   10    1    4    1
 0.001581471381733252   10    1    5    2
 0.002318231794692002   10    1    6    1
 -0.0004480918588176162   10    1    8    3
 -0.0004981467009893411   10    1    8    4
 0.001312495547918475   10    1    8    6
 0.0004981467009894089   10    1    9    5
 0.0005351155171397934   10    1   10    1
 -3.555364169904089e-05   10    1   10    8
 0.000431193172238954   10    2    3    2
 0.001581471381733297   10    2    4    2
 0.001581471381733391   10    2    5    1
 0.00231823179469233   10    2    6    2
 0.0004981467009892804   10    2    8    5
 -0.0004480918588178077   10    2    9    3
 0.0004981467009893556   10    2    9    4
 0.001312495547919013   10    2    9    6
 0.0005351155171398671   10    2   10    2
 -3.555364169901262e-05   10    2   10    9
 0.0002679652940897411   10    2   12    7
 0.0001209384340595708   10    2   12   11
 0.009408715691543461   10    3    1    1
 0.009408715691543302   10    3    2    2
 0.01129020690516784   10    3    3    3
 0.007542934192439808   10    3    4    4
 0.007542934192439818   10    3    5    5
 0.002055264050099738   10    3    6    3
 0.00195970717398223   10    3    6    6
 0.0009879006404929923   10    3    7    7
 -0.0006435705194118737   10    3    8    1
 0.0001964028786760216   10    3    8    8
 -0.0006435705194121431   10    3    9    2
 0.0001964028786760863   10    3    9    9
 0.0005640514524732222   10    3   10    3
 0.0003392100392184382   10    3   10    6
 5.391273150715086e-05   10    3   10   10
 -0.0005700807245046347   10    3   11    7
 0.0003242139598890207   10    3   11   11
 4.569824105886241e-05   10    3   12   12
 -0.0008529784196381836   10    4    1    1
 0.0008529784196400406   10    4    2    2
 -0.0002763585561827018   10    4    4    3
 0.00172744073539514   10    4    6    4
 -0.0001651817731987272   10    4    8    1
 -0.0002991484645798486   10    4    8    8
 0.0001651817731986739   10    4    9    2
 0.0002991484645799795   10    4    9    9
 0.0003484178895991352   10    4   10    4
 -1.552505539854226e-06   10    4   12   12
 0.000852978419639114   10    5    2    1
 -0.0002763585561826744   10    5    5    3
 0.001727440735395171   10    5    6    5
 0.0001651817731986687   10    5    8    2
 0.0001651817731987341   10    5    9    1
 0.0002991484645798842   10    5    9    8
 0.0003484178895991437   10    5   10    5
 0.02889654706594581   10    6    1    1
 0.02889654706594604   10    6    2    2
 0.02783096570293438   10    6    3    3
 0.02741323906875963   10    6    4    4
 0.02741323906875968   10    6    5    5
 8.840090458545294e-05   10    6    6    3
 0.0174557642984678   10    6    6    6
 0.005476075192070283   10    6    7    7
 -0.0001714250129262219   10    6    8    1
 0.004543196598029529   10    6    8    8
 -0.0001714250129262873   10    6    9    2
 0.004543196598031805   10    6    9    9
 0.0003392100392184393   10    6   10    3
 0.002893810427122697   10    6   10    6
 0.0001920083190086237   10    6   10   10
 -0.003138746347455355   10    6   11    7
 0.00163875416539186   10    6   11   11
 0.0003385015886744927   10    6   12   12
 -0.001807549147661652   10    7    7    3
 -0.01007947658897962   10    7    7    6
 0.01363340083562559   10    7   10    7
 0.0009136971251873256   10    7   11    3
 0.003761021794902707   10    7   11    6
 0.01063341657880077   10    7   11   10
 0.0003139728691291126   10    7   12    2
 -0.009451425327296885   10    7   12    9
 0.0002019245681545293   10    8    3    1
 7.289648564648598e-08   10    8    4    1
 -7.289648562109896e-08   10    8    5    2
 -7.092307105269621e-05   10    8    6    1
 0.0003284366314168253   10    8    8    3
 0.0007695322415163711   10    8    8    4
 -0.003669774167761531   10    8    8    6
 -0.0007695322415164779   10    8    9    5
 -3.555364169904311e-05   10    8   10    1
 0.006034494838322558   10    8   10    8
 0.0002019245681544855   10    9    3    2
 -7.289648548748077e-08   10    9    4    2
 -7.289648550799503e-08   10    9    5    1
 -7.092307105254457e-05   10    9    6    2
 -0.0007695322415162638   10    9    8    5
 0.0003284366314169709   10    9    9    3
 -0.0007695322415163616   10    9    9    4
 -0.003669774167762823   10    9    9    6
 -3.555364169901709e-05   10    9   10    2
 0.006034494838321887   10    9   10    9
 -0.005429294677501323   10    9   12    7
 -0.007194287665862024   10    9   12   11
 0.09287055903100776   10   10    1    1
 0.0928705590310079   10   10    2    2
 0.09306472753849267   10   10    3    3
 0.0922683459319419   10   10    4    4
 0.09226834593194223   10   10    5    5
 0.0008524541038424344   10   10    6    3
 0.09044532449750975   10   10    6    6
 0.09130463034517999   10   10    7    7
 -0.0003833631561068695   10   10    8    1
 0.07960043690713291   10   10    8    8
 -0.000383363156106985   10   10    9    2
 0.07960043690714187   10   10    9    9
 5.391273150716089e-05   10   10   10    3
 0.0001920083190086609   10   10   10    6
 0.08481949145136986   10   10   10   10
 -0.005305974124362726   10   10   11    7
 0.0719568180126081   10   10   11   11
 0.07278836523632401   10   10   12   12
 -0.0006464223839660529   11    1    7    1
 0.0005861392926766925   11    1    8    7
 0.0003763551050951575   11    1   11    1
 -0.0002218253477726404   11    1   11    8
 7.08266321206114e-05   11    1   12    5
 -0.0006464223839661877   11    2    7    2
 0.0005861392926768293   11    2    9    7
 0.0003763551050943744   11    2   11    2
 -0.0002218253477713249   11    2   11    9
 3.092814118013328e-05   11    2   12    3
 7.082663212090353e-05   11    2   12    4
 0.0002159199021530316   11    2   12    6
 -0.0001180212427409361   11    2   12   10
 -0.001900627718321963   11    3    7    3
 -0.003730265255471777   11    3    7    6
 0.0009136971251866716   11    3   10    7
 0.001087504025331221   11    3   11    3
 0.001926466821222198   11    3   11    6
 0.0005209726932052618   11    3   11   10
 0.0003882846650295624   11    3   12    2
 -0.0007809480309229187   11    3   12    9
 -0.0006986681786386177   11    4    7    4
 0.000398549571966705   11    4   11    4
 2.895410993546625e-05   11    4   12    2
 -0.0001405129923831825   11    4   12    9
 -0.0006986681786483545   11    5    7    5
 0.0003985495718649237   11    5   11    5
 2.895410993461324e-05   11    5   12    1
 -0.0001405129923757567   11    5   12    8
 -0.003434808320928557   11    6    7    3
 -0.01555850065570327   11    6    7    6
 0.003761021794929666   11    6   10    7
 0.00192646682117486   11    6   11    3
 0.007910552282192007   11    6   11    6
 0.002286649696843608   11    6   11   10
 0.001198183848898745   11    6   12    2
 -0.003909736335569633   11    6   12    9
 -0.04744458711898499   11    7    1    1
 -0.04744458711898503   11    7    2    2
 -0.04922386922095282   11    7    3    3
 -0.04584079738305227   11    7    4    4
 -0.04584079738327231   11    7    5    5
 -0.003006621879352397   11    7    6    3
 -0.03951373750128512   11    7    6    6
 -0.02891041864721626   11    7    7    7
 0.001299884212682785   11    7    8    1
 -0.01551080648165555   11    7    8    8
 0.001299884212683195   11    7    9    2
 -0.01551080648166289   11    7    9    9
 -0.0005700807245068316   11    7   10    3
 -0.003138746347483462   11    7   10    6
 -0.005305974124481933   11    7   10   10
 0.01259050495190752   11    7   11    7
 -0.007676640044788471   11    7   11   11
 -0.003642024372058193   11    7   12   12
 0.0003956566030305473   11    8    7    1
 0.0001127504743997994   11    8    8    7
 -0.0002218253477755205   11    8   11    1
 0.002544257620077294   11    8   11    8
 -0.0001044736619889289   11    8   12    5
 0.0003956566030307106   11    9    7    2
 0.0001127504743985647   11    9    9    7