 &FCI NORB=  28,NELEC=14,MS2=0,
  ORBSYM=1,6,1,6,1,7,8,3,4,6,1,7,8,1,3,4,6,6,1,2,7,8,5,6,1,3,4,6
  ISYM=1,
 &END
 2.30359504384013    1    1    1    1
 1.818900183781318    2    1    2    1
 2.304591439198493    2    2    1    1
 2.305588758064223    2    2    2    2
 -0.1991997384480303    3    1    1    1
 -0.1993729341357642    3    1    2    2
 0.03661102690089546    3    1    3    1
 -0.2099262850769034    3    2    2    1
 0.03620297819798256    3    2    3    2
 0.8425031299993248    3    3    1    1
 0.8424204541198789    3    3    2    2
 0.006140519901629816    3    3    3    1
 0.8235300331915772    3    3    3    3
 -0.176744324726727    4    1    2    1
 0.02554152405714866    4    1    3    2
 0.02864161238179669    4    1    4    1
 -0.1847542230382863    4    2    1    1
 -0.1848851855468788    4    2    2    2
 0.02519097449504526    4    2    3    1
 -0.02209468389952571    4    2    3    3
 0.02893058173734794    4    2    4    2
 0.1661271387442295    4    3    2    1
 -0.00887194918845257    4    3    3    2
 -0.003602901389198232    4    3    4    1
 0.05299483159740087    4    3    4    3
 0.6660191555642117    4    4    1    1
 0.6660930557669896    4    4    2    2
 -0.01321424036834997    4    4    3    1
 0.5207691787188468    4    4    3    3
 -0.003011987947701152    4    4    4    2
 0.5366241161187018    4    4    4    4
 0.07253244012223456    5    1    1    1
 0.07255908246421859    5    1    2    2
 -0.002405731755127409    5    1    3    1
 0.03150729213678986    5    1    3    3
 -0.01593338335779175    5    1    4    2
 -0.006293196669455669    5    1    4    4
 0.01774426821206493    5    1    5    1
 0.05547795193335305    5    2    2    1
 -0.003162100970500294    5    2    3    2
 -0.01536495374883488    5    2    4    1
 -0.002090371200467618    5    2    4    3
 0.01652412582880244    5    2    5    2
 0.09863624558766841    5    3    1    1
 0.09855742931041848    5    3    2    2
 0.009136915394641612    5    3    3    1
 0.143723003014498    5    3    3    3
 -0.007797057876655302    5    3    4    2
 0.005882209605173981    5    3    4    4
 0.01639226273755776    5    3    5    1
 0.06635630084142319    5    3    5    3
 -0.2523902355813327    5    4    2    1
 0.01572197053014852    5    4    3    2
 -0.004068699432152849    5    4    4    1
 -0.09069471836666974    5    4    4    3
 0.01663127478228748    5    4    5    2
 0.2091772169157806    5    4    5    4
 0.6951931330260072    5    5    1    1
 0.6952230851443387    5    5    2    2
 -0.008325841819026765    5    5    3    1
 0.5688684116094255    5    5    3    3
 -0.004037376782875454    5    5    4    2
 0.5409238788287946    5    5    4    4
 -0.001347151766546208    5    5    5    1
 0.03330581455208738    5    5    5    3
 0.5630111268713551    5    5    5    5
 0.01251063240032725    6    1    6    1
 0.011898133476008    6    2    6    2
 0.01720811359414085    6    3    6    1
 0.1012152850265858    6    3    6    3
 0.01060192835768491    6    4    6    2
 0.04139000889210133    6    4    6    4
 -0.004061813107739911    6    5    6    1
 -0.01124083196787625    6    5    6    3
 0.02367465962780926    6    5    6    5
 0.6872660292017162    6    6    1    1
 0.6872604146003027    6    6    2    2
 0.0001247111018377907    6    6    3    1
 0.6356752192152541    6    6    3    3
 -0.008662810255768894    6    6    4    2
 0.4933794544152025    6    6    4    4
 0.01073706383911979    6    6    5    1
 0.06232912130826077    6    6    5    3
 0.505115821748625    6    6    5    5
 0.5777436130112086    6    6    6    6
 0.01251063240032729    7    1    7    1
 0.01189813347600804    7    2    7    2
 0.01720811359414088    7    3    7    1
 0.1012152850265858    7    3    7    3
 0.01060192835768493    7    4    7    2
 0.04139000889210137    7    4    7    4
 -0.004061813107739918    7    5    7    1
 -0.01124083196787624    7    5    7    3
 0.02367465962780927    7    5    7    5
 0.02335847400658732    7    6    7    6
 0.6872660292017168    7    7    1    1
 0.6872604146003033    7    7    2    2
 0.0001247111018377792    7    7    3    1
 0.6356752192152544    7    7    3    3
 -0.008662810255768915    7    7    4    2
 0.4933794544152028    7    7    4    4
 0.0107370638391198    7    7    5    1
 0.06232912130826081    7    7    5    3
 0.5051158217486252    7    7    5    5
 0.5310266649980343    7    7    6    6
 0.577743613011209    7    7    7    7
 0.01165247436543383    8    1    7    2
 0.01053407958809361    8    1    7    4
 0.01143391583361641    8    1    8    1
 0.01213948906995447    8    2    7    1
 0.01567525671950297    8    2    7    3
 -0.004453270326185361    8    2    7    5
 0.01181692226571163    8    2    8    2
 0.009914348022710016    8    3    7    2
 0.03325866209876156    8    3    7    4
 0.009559529741081776    8    3    8    1
 0.03112926072634239    8    3    8    3
 0.01386087973545188    8    4    7    1
 0.06358553968648334    8    4    7    3
 -0.03308370137861916    8    4    7    5
 0.01345998428400111    8    4    8    2
 0.07170984910087624    8    4    8    4
 -0.006236070712072987    8    5    7    2
 -0.0339332991912645    8    5    7    4
 -0.006505341890622308    8    5    8    1
 -0.02183230674296206    8    5    8    3
 0.03599452020304013    8    5    8    5
 0.01361385524142601    8    6    8    6
 0.2339012656017246    8    7    2    1
 -0.008602345746889735    8    7    3    2
 -0.001582675383687438    8    7    4    1
 0.07940372350514147    8    7    4    3
 -0.004111498408082771    8    7    5    2
 -0.1331141240051619    8    7    5    4
 0.1363027715129375    8    7    8    7
 0.6158211980430691    8    8    1    1
 0.6158496058269904    8    8    2    2
 -0.004240841329013711    8    8    3    1
 0.5302990943571845    8    8    3    3
 -0.004702853825027131    8    8    4    2
 0.4785763903143885    8    8    4    4
 0.002661807582194929    8    8    5    1
 0.02572278610969758    8    8    5    3
 0.4808398942971799    8    8    5    5
 0.4722406517591063    8    8    6    6
 0.5079667496456332    8    8    7    7
 0.4784612283347685    8    8    8    8
 0.0116524743654338    9    1    6    2
 0.01053407958809358    9    1    6    4
 0.01143391583361637    9    1    9    1
 0.01213948906995443    9    2    6    1
 0.01567525671950293    9    2    6    3
 -0.004453270326185353    9    2    6    5
 0.01181692226571159    9    2    9    2
 0.009914348022709992    9    3    6    2
 0.03325866209876152    9    3    6    4
 0.009559529741081749    9    3    9    1
 0.03112926072634234    9    3    9    3
 0.01386087973545185    9    4    6    1
 0.06358553968648328    9    4    6    3
 -0.03308370137861916    9    4    6    5
 0.01345998428400108    9    4    9    2
 0.07170984910087622    9    4    9    4
 -0.006236070712072978    9    5    6    2
 -0.03393329919126448    9    5    6    4
 -0.006505341890622298    9    5    9    1
 -0.02183230674296206    9    5    9    3
 0.03599452020304014    9    5    9    5
 0.2339012656017242    9    6    2    1
 -0.008602345746889718    9    6    3    2
 -0.001582675383687425    9    6    4    1
 0.07940372350514138    9    6    4    3
 -0.004111498408082784    9    6    5    2
 -0.1331141240051618    9    6    5    4
 0.1090750610300853    9    6    8    7
 0.1363027715129372    9    6    9    6
 0.013613855241426    9    7    8    6
 0.013613855241426    9    7    9    7
 0.01786304894326333    9    8    7    6
 0.01821931416689906    9    8    9    8
 0.6158211980430686    9    9    1    1
 0.6158496058269899    9    9    2    2
 -0.004240841329013704    9    9    3    1
 0.5302990943571841    9    9    3    3
 -0.004702853825027119    9    9    4    2
 0.4785763903143884    9    9    4    4
 0.002661807582194909    9    9    5    1
 0.0257227861096975    9    9    5    3
 0.4808398942971797    9    9    5    5
 0.5079667496456326    9    9    6    6
 0.4722406517591062    9    9    7    7
 0.4420226000009704    9    9    8    8
 0.4784612283347683    9    9    9    9
 -0.116605402179109   10    1    2    1
 0.01962338017539956   10    1    3    2
 0.01618749497933048   10    1    4    1
 -0.00362263075281182   10    1    4    3
 -0.004596405320942577   10    1    5    2
 0.004472538767497702   10    1    5    4
 -0.002561228507021033   10    1    8    7
 -0.002561228507021025   10    1    9    6
 0.01119667309617736   10    1   10    1
 -0.1156176531817598   10    2    1    1
 -0.1157119509111613   10    2    2    2
 0.01966293930796378   10    2    3    1
 -0.003081023470620583   10    2    3    3
 0.0161784143068202   10    2    4    2
 -0.005367854659657031   10    2    4    4
 -0.004538215220342222   10    2    5    1
 0.001252244735051927   10    2    5    3
 -0.004085414532396107   10    2    5    5
 -0.001483624962589188   10    2    6    6
 -0.001483624962589194   10    2    7    7
 -0.002126982588844287   10    2    8    8
 -0.00212698258884428   10    2    9    9
 0.01121165108166808   10    2   10    2
 0.1249900619655342   10    3    2    1
 -0.004773912249277837   10    3    3    2
 -0.005453344752438112   10    3    4    1
 0.03160867047057289   10    3    4    3
 0.003263907697158414   10    3    5    2
 -0.03787578806493256   10    3    5    4
 0.04813262484254523   10    3    8    7
 0.04813262484254515   10    3    9    6
 -0.002556992732547273   10    3   10    1
 0.02612086988162298   10    3   10    3
 0.1387045336025129   10    4    1    1
 0.1387230378144496   10    4    2    2
 -0.003555894022250507   10    4    3    1
 0.09880711940727047   10    4    3    3
 -0.004499265134762552   10    4    4    2
 0.05447430581218617   10    4    4    4
 0.002792849160186527   10    4    5    1
 0.01679795354708004   10    4    5    3
 0.05388802103088911   10    4    5    5
 0.07967731686858119   10    4    6    6
 0.07967731686858126   10    4    7    7
 0.05984097627213804   10    4    8    8
 0.05984097627213794   10    4    9    9
 -0.00212652940892448   10    4   10    2
 0.03440924502575962   10    4   10    4
 -0.003046502159359358   10    5    2    1
 0.00233945562603317   10    5    3    2
 -7.12465510875941e-05   10    5    4    1
 0.005632602366646396   10    5    4    3
 0.001901755494074311   10    5    5    2
 -0.02020551481537022   10    5    5    4
 0.007998199427960567   10    5    8    7
 0.007998199427960581   10    5    9    6
 0.0007584081302817709   10    5   10    1
 -0.001631176479292233   10    5   10    3
 0.0230116447995114   10    5   10    5
 0.006662372290221876   10    6    6    2
 0.0194554253786928   10    6    6    4
 0.006437647009691605   10    6    9    1
 0.01914797488616395   10    6    9    3
 -0.01004141426993968   10    6    9    5
 0.01396286539398364   10    6   10    6
 0.006662372290221891   10    7    7    2
 0.01945542537869284   10    7    7    4
 0.006437647009691623   10    7    8    1
 0.01914797488616399   10    7    8    3
 -0.01004141426993969   10    7    8    5
 0.01396286539398366   10    7   10    7
 0.007223354898193606   10    8    7    1
 0.0318849994433675   10    8    7    3
 -0.005443388882091386   10    8    7    5
 0.00680533869156762   10    8    8    2
 0.02082207831996533   10    8    8    4
 0.01733222453924272   10    8   10    8
 0.007223354898193587   10    9    6    1
 0.03188499944336744   10    9    6    3
 -0.005443388882091369   10    9    6    5
 0.006805338691567599   10    9    9    2
 0.02082207831996528   10    9    9    4
 0.01733222453924271   10    9   10    9
 0.4109719709087383   10   10    1    1
 0.4109873255602849   10   10    2    2
 -0.002866501615157302   10   10    3    1
 0.3696077226964646   10   10    3    3
 -0.002951743070877774   10   10    4    2
 0.3664669543607984   10   10    4    4
 0.001458136962659121   10   10    5    1
 0.008124076289713242   10   10    5    3
 0.3726586714822315   10   10    5    5
 0.3487829109847427   10   10    6    6
 0.3487829109847428   10   10    7    7
 0.3430201705276459   10   10    8    8
 0.343020170527646   10   10    9    9
 -0.001717657736907516   10   10   10    2
 0.001253863718644185   10   10   10    4
 0.3488193232943727   10   10   10   10
 0.0117227687936898   11    1    1    1
 0.0117523193823077   11    1    2    2
 -0.008539565041900746   11    1    3    1
 -0.01838954689351941   11    1    3    3
 0.00281501200340738   11    1    4    2
 0.006544542059900855   11    1    4    4
 -0.01015595449865214   11    1    5    1
 -0.01125723971887544   11    1    5    3
 0.002344883500820167   11    1    5    5
 -0.005288127542727927   11    1    6    6
 -0.00528812754272793   11    1    7    7
 -0.0001011404231009369   11    1    8    8
 -0.0001011404231009319   11    1    9    9
 -0.002599305027457449   11    1   10    2
 -0.0003559435469003663   11    1   10    4
 -0.0001877455080215903   11    1   10   10
 0.008629814562373316   11    1   11    1
 0.02312609901482099   11    2    2    1
 -0.008025989257383202   11    2    3    2
 0.002420172573801904   11    2    4    1
 0.003219802894266723   11    2    4    3
 -0.009305041557245123   11    2    5    2
 -0.01232038961341142   11    2    5    4
 0.004319544619377975   11    2    8    7
 0.00431954461937797   11    2    9    6
 -0.002559640589318138   11    2   10    1
 -0.0006243162544943378   11    2   10    3
 -0.00187338695516038   11    2   10    5
 0.008037079249343441   11    2   11    2
 -0.1050672381421983   11    3    1    1
 -0.1050318290282836   11    3    2    2
 -0.002735849847024777   11    3    3    1
 -0.09019946844344671   11    3    3    3
 0.007097237282786011   11    3    4    2
 -0.02325484975314011   11    3    4    4
 -0.01075351751600043   11    3    5    1
 -0.04070457502706334   11    3    5    3
 -0.0455482128443949   11    3    5    5
 -0.03364627708164013   11    3    6    6
 -0.03364627708164019   11    3    7    7
 -0.02268652944858902   11    3    8    8
 -0.02268652944858896   11    3    9    9
 0.0008631299822341079   11    3   10    2
 -0.005862236983711798   11    3   10    4
 -0.01754109601648102   11    3   10   10
 0.006892430713457447   11    3   11    1
 0.03937623475663798   11    3   11    3
 0.02985429831049488   11    4    2    1
 -0.002396467235893129   11    4    3    2
 -0.0003744956812125822   11    4    4    1
 0.001876206998677454   11    4    4    3
 -0.00133724909776356   11    4    5    2
 0.00745877530964456   11    4    5    4
 0.004147881244943153   11    4    8    7
 0.004147881244943127   11    4    9    6
 -0.000794733827152488   11    4   10    1
 0.006927873451079172   11    4   10    3
 -0.01753513502015165   11    4   10    5
 0.00150378009264725   11    4   11    2
 0.01575318883596847   11    4   11    4
 -0.1637542771042508   11    5    1    1
 -0.1637411760414049   11    5    2    2
 0.0003867049313505093   11    5    3    1
 -0.1303817778649599   11    5    3    3
 0.006383241384918063   11    5    4    2
 -0.04884036141487618   11    5    4    4
 -0.00749218265251857   11    5    5    1
 -0.03917898356639885   11    5    5    3
 -0.06218995905050365   11    5    5    5
 -0.08319213625843005   11    5    6    6
 -0.08319213625843012   11    5    7    7
 -0.05648578283363374   11    5    8    8
 -0.05648578283363362   11    5    9    9
 0.001576344097586835   11    5   10    2
 -0.0343136807707309   11    5   10    4
 -0.001721411685833834   11    5   10   10
 0.003924858176345242   11    5   11    1
 0.02345182630706382   11    5   11    3
 0.04645863644110913   11    5   11    5
 0.00233083978384177   11    6    6    1
 0.02449922465835428   11    6    6    3
 -0.01020455051183501   11    6    6    5
 0.002337327407506879   11    6    9    2
 0.02016847031931333   11    6    9    4
 0.0107100897494064   11    6   10    9
 0.01985260471917348   11    6   11    6
 0.00233083978384177   11    7    7    1
 0.02449922465835426   11    7    7    3
 -0.010204550511835   11    7    7    5
 0.002337327407506881   11    7    8    2
 0.02016847031931332   11    7    8    4
 0.01071008974940637   11    7   10    8
 0.01985260471917346   11    7   11    7
 0.0008800040942730721   11    8    7    2
 0.005025766906825289   11    8    7    4
 0.0009952121013772689   11    8    8    1
 0.003737709232215867   11    8    8    3
 -0.002211042336209197   11    8    8    5
 0.005462063022230564   11    8   10    7
 0.007147195548461118   11    8   11    8
 0.0008800040942730706   11    9    6    2
 0.005025766906825276   11    9    6    4
 0.0009952121013772671   11    9    9    1
 0.00373770923221586   11    9    9    3
 -0.002211042336209177   11    9    9    5
 0.005462063022230557   11    9   10    6
 0.007147195548461122   11    9   11    9
 0.04756495986677628   11   10    2    1
 -0.002875614240240888   11   10    3    2
 0.003692607395689084   11   10    4    1
 0.03509736444605518   11   10    4    3
 -0.006628022700724817   11   10    5    2
 -0.08879428114074636   11   10    5    4
 0.0534998609847891   11   10    8    7
 0.0534998609847891   11   10    9    6
 -0.0002088835210918294   11   10   10    1
 0.006291705789148038   11   10   10    3
 0.03552494840418216   11   10   10    5
 0.004099677291704421   11   10   11    2
 -0.02406506885943072   11   10   11    4
 0.08690411595870395   11   10   11   10
 0.4918830706461799   11   11    1    1
 0.4918663808017352   11   11    2    2
 0.0004419807107770857   11   11    3    1
 0.4685590091702425   11   11    3    3
 -0.005885636928681515   11   11    4    2
 0.3960088756375015   11   11    4    4
 0.007506446819164669   11   11    5    1
 0.03758036935251283   11   11    5    3
 0.4115785389762152   11   11    5    5
 0.4163028233785638   11   11    6    6
 0.4163028233785641   11   11    7    7
 0.3842459520569668   11   11    8    8
 0.3842459520569668   11   11    9    9
 -0.001281856345946357   11   11   10    2
 0.02738671607515065   11   11   10    4
 0.3366871687505057   11   11   10   10
 -0.004250049854037574   11   11   11    1
 -0.02517340769723884   11   11   11    3
 -0.03635912359726006   11   11   11    5
 0.3709374840527327   11   11   11   11
 0.01478967673036923   12    1    6    1
 0.01813429993252015   12    1    6    3
 -0.004209818243265804   12    1    6    5
 0.0143692323710072   12    1    9    2
 0.01457880465910311   12    1    9    4
 0.007721532022111144   12    1   10    9
 0.002260445820170677   12    1   11    6
 0.01759148546472762   12    1   12    1
 0.01417194294237253   12    2    6    2
 0.0113074789383844   12    2    6    4
 0.01388083509737781   12    2    9    1
 0.01065484055253152   12    2    9    3
 -0.006520625373425882   12    2    9    5
 0.007202598994852473   12    2   10    6
 0.0008860996738287761   12    2   11    9
 0.01696863628576792   12    2   12    2
 0.009879615543906527   12    3    6    1
 0.03961806916128848   12    3    6    3
 0.003840963214636928   12    3    6    5
 0.008960969894955536   12    3    9    2
 0.01743540684524827   12    3    9    4
 0.01391703318474374   12    3   10    9
 -0.001563637566684989   12    3   11    6
 0.01069664584552924   12    3   12    1
 0.02811223621378123   12    3   12    3
 0.006020737311391047   12    4    6    2
 0.009067681054621636   12    4    6    4
 0.005942899754705663   12    4    9    1
 0.008597993417818816   12    4    9    3
 -0.002736723020575032   12    4    9    5
 0.00809201245344696   12    4   10    6
 0.003329576610225638   12    4   11    9
 0.006621625797180745   12    4   12    2
 0.01193949051339554   12    4   12    4
 0.0003109284904976078   12    5    6    1
 0.01787977940859493   12    5    6    3
 0.002041225120189988   12    5    6    5
 -0.0001683322707893608   12    5    9    2
 0.008078199291557009   12    5    9    4
 7.790840749716061e-05   12    5   10    9
 0.002391375038933372   12    5   11    6
 0.0002266588257060145   12    5   12    1
 0.003891096434271411   12    5   12    3
 0.01206458926130259   12    5   12    5
 0.2372747035507957   12    6    1    1
 0.2372897409554894   12    6    2    2
 -0.002916740950422179   12    6    3    1
 0.1611719664836583   12    6    3    3
 -0.007556207849957689   12    6    4    2
 0.09029411502146563   12    6    4    4
 0.007121009598302408   12    6    5    1
 0.03704413721623011   12    6    5    3
 0.102247595414505   12    6    5    5
 0.1145265825411027   12    6    6    6
 0.106684958990562   12    6    7    7
 0.0832438866877909   12    6    8    8
 0.08713823158226283   12    6    9    9
 -0.002397730723535282   12    6   10    2
 0.03252555132119746   12    6   10    4
 0.03885216621890189   12    6   10   10
 -0.002918478975070701   12    6   11    1
 -0.03224453952359478   12    6   11    3
 -0.03967577867111167   12    6   11    5
 0.05198055181692633   12    6   11   11
 0.07647664766265269   12    6   12    6
 0.00392081177527046   12    7    7    6
 0.001947172447236069   12    7    9    8
 0.008194343064513694   12    7   12    7
 0.002341351178611745   12    8    8    6
 0.002341351178611743   12    8    9    7
 0.006504608000326704   12    8   12    8
 0.1399083401083009   12    9    2    1
 -0.006163099969893763   12    9    3    2
 -0.004774170882823494   12    9    4    1
 0.0220403929178338   12    9    4    3
 0.001413573700675391   12    9    5    2
 -0.02353050983656595   12    9    5    4
 0.02919683617783919   12    9    8    7
 0.03387953853506259   12    9    9    6
 -0.002668285046688053   12    9   10    1
 0.02204614181242022   12    9   10    3
 -0.009463834087083548   12    9   10    5
 0.0009289472860146739   12    9   11    2
 0.01120415911305204   12    9   11    4
 -0.01236638323375931   12    9   11   10
 0.04453359802770875   12    9   12    9
 0.005220543938576674   12   10    6    2
 0.01370228962161289   12   10    6    4
 0.005052732098415792   12   10    9    1
 0.01243260291936655   12   10    9    3
 -0.01032744990601885   12   10    9    5
 0.005567741029169604   12   10   10    6
 -0.002958569817210491   12   10   11    9
 0.005712595132940735   12   10   12    2
 0.003798479131756381   12   10   12    4
 0.00934983803582414   12   10   12   10
 -0.002562738514681966   12   11    6    1
 -0.02496072081674602   12   11    6    3
 -0.001242550326112672   12   11    6    5
 -0.00208331586937851   12   11    9    2
 -0.008977252214324294   12   11    9    4
 -0.009929347986321462   12   11   10    9
 -0.01255339432941681   12   11   11    6
 -0.002687721642993807   12   11   12    1
 -0.004727276870448309   12   11   12    3
 -0.007502126719007792   12   11   12    5
 0.01842451045887008   12   11   12   11
 0.588277498001434   12   12    1    1
 0.5882951792179413   12   12    2    2
 -0.003415241698873402   12   12    3    1
 0.5106897621066702   12   12    3    3
 -0.009006301148561604   12   12    4    2
 0.4186015859505992   12   12    4    4
 0.008500910747295202   12   12    5    1
 0.04177173227632493   12   12    5    3
 0.42780762745034   12   12    5    5
 0.4737680187140904   12   12    6    6
 0.4424271473668616   12   12    7    7
 0.4040542949297714   12   12    8    8
 0.4312318387441648   12   12    9    9
 -0.002842222968473184   12   12   10    2
 0.05487006002292058   12   12   10    4
 0.3146557759933024   12   12   10   10
 -0.003399316852430762   12   12   11    1
 -0.02462886560596695   12   12   11    3
 -0.05980771680189433   12   12   11    5
 0.3680018063429029   12   12   11   11
 0.07170576116001563   12   12   12    6
 0.4209513147496828   12   12   12   12
 0.01478967673036924   13    1    7    1
 0.01813429993252014   13    1    7    3
 -0.004209818243265804   13    1    7    5
 0.01436923237100722   13    1    8    2
 0.01457880465910311   13    1    8    4
 0.007721532022111163   13    1   10    8
 0.002260445820170673   13    1   11    7
 0.01759148546472759   13    1   13    1
 0.01417194294237254   13    2    7    2
 0.0113074789383844   13    2    7    4
 0.01388083509737783   13    2    8    1
 0.01065484055253152   13    2    8    3
 -0.006520625373425876   13    2    8    5
 0.00720259899485249   13    2   10    7
 0.0008860996738287716   13    2   11    8
 0.01696863628576789   13    2   13    2
 0.009879615543906522   13    3    7    1
 0.03961806916128841   13    3    7    3
 0.003840963214636935   13    3    7    5
 0.008960969894955538   13    3    8    2
 0.01743540684524824   13    3    8    4
 0.01391703318474375   13    3   10    8
 -0.001563637566685021   13    3   11    7
 0.01069664584552922   13    3   13    1
 0.02811223621378115   13    3   13    3
 0.006020737311391044   13    4    7    2
 0.00906768105462161   13    4    7    4
 0.005942899754705666   13    4    8    1
 0.0085979934178188   13    4    8    3
 -0.00273672302057501   13    4    8    5
 0.008092012453446946   13    4   10    7
 0.003329576610225629   13    4   11    8
 0.00662162579718073   13    4   13    2
 0.01193949051339552   13    4   13    4
 0.0003109284904976113   13    5    7    1
 0.01787977940859494   13    5    7    3
 0.002041225120189976   13    5    7    5
 -0.0001683322707893562   13    5    8    2
 0.008078199291557035   13    5    8    4
 7.790840749717858e-05   13    5   10    8
 0.002391375038933374   13    5   11    7
 0.0002266588257060178   13    5   13    1
 0.003891096434271389   13    5   13    3
 0.01206458926130258   13    5   13    5
 0.003920811775270422   13    6    7    6
 0.001947172447236038   13    6    9    8
 0.008194343064513693   13    6   12    7
 0.008194343064513686   13    6   13    6
 0.2372747035507957   13    7    1    1
 0.2372897409554893   13    7    2    2
 -0.002916740950422184   13    7    3    1
 0.1611719664836582   13    7    3    3
 -0.007556207849957694   13    7    4    2
 0.09029411502146557   13    7    4    4
 0.0071210095983024   13    7    5    1
 0.03704413721623007   13    7    5    3
 0.1022475954145049   13    7    5    5
 0.1066849589905618   13    7    6    6
 0.1145265825411028   13    7    7    7
 0.08713823158226297   13    7    8    8
 0.08324388668779067   13    7    9    9
 -0.002397730723535229   13    7   10    2
 0.03252555132119744   13    7   10    4
 0.0388521662189001   13    7   10   10
 -0.002918478975070714   13    7   11    1
 -0.03224453952359476   13    7   11    3
 -0.03967577867111166   13    7   11    5
 0.05198055181692631   13    7   11   11
 0.06008796153362525   13    7   12    6
 0.07312259793300119   13    7   12   12
 0.07647664766265266   13    7   13    7
 0.1399083401083009   13    8    2    1
 -0.006163099969893765   13    8    3    2
 -0.0047741708828235   13    8    4    1
 0.02204039291783381   13    8    4    3
 0.001413573700675395   13    8    5    2
 -0.02353050983656595   13    8    5    4
 0.0338795385350627   13    8    8    7
 0.0291968361778391   13    8    9    6
 -0.002668285046688051   13    8   10    1
 0.02204614181242022   13    8   10    3
 -0.009463834087083513   13    8   10    5
 0.0009289472860146678   13    8   11    2
 0.01120415911305206   13    8   11    4
 -0.01236638323375922   13    8   11   10
 0.03152438202705531   13    8   12    9
 0.04453359802770875   13    8   13    8
 0.002341351178611718   13    9    8    6
 0.002341351178611717   13    9    9    7
 0.006504608000326701   13    9   12    8
 0.006504608000326695   13    9   13    9
 0.005220543938576682   13   10    7    2
 0.01370228962161289   13   10    7    4
 0.005052732098415801   13   10    8    1
 0.01243260291936655   13   10    8    3
 -0.01032744990601883   13   10    8    5
 0.005567741029169486   13   10   10    7
 -0.002958569817210484   13   10   11    8
 0.005712595132940731   13   10   13    2
 0.003798479131756344   13   10   13    4
 0.009349838035823812   13   10   13   10
 -0.002562738514681973   13   11    7    1
 -0.02496072081674604   13   11    7    3
 -0.001242550326112675   13   11    7    5
 -0.002083315869378517   13   11    8    2
 -0.008977252214324315   13   11    8    4
 -0.009929347986321446   13   11   10    8
 -0.01255339432941681   13   11   11    7
 -0.002687721642993808   13   11   13    1
 -0.004727276870448284   13   11   13    3
 -0.007502126719007796   13   11   13    5
 0.01842451045887009   13   11   13   11
 0.01567043567361458   13   12    7    6
 0.01358877190719678   13   12    9    8
 -0.0007084183864927557   13   12   12    7
 -0.000708418386492788   13   12   13    6
 0.01644662355716206   13   12   13   12
 0.5882774980014335   13   13    1    1
 0.5882951792179407   13   13    2    2
 -0.003415241698873404   13   13    3    1
 0.5106897621066698   13   13    3    3
 -0.009006301148561588   13   13    4    2
 0.418601585950599   13   13    4    4
 0.008500910747295186   13   13    5    1
 0.04177173227632487   13   13    5    3
 0.4278076274503397   13   13    5    5
 0.4424271473668611   13   13    6    6
 0.4737680187140904   13   13    7    7
 0.4312318387441648   13   13    8    8
 0.4040542949297712   13   13    9    9
 -0.002842222968473019   13   13   10    2
 0.05487006002292065   13   13   10    4
 0.3146557759933022   13   13   10   10
 -0.003399316852430773   13   13   11    1
 -0.02462886560596689   13   13   11    3
 -0.05980771680189426   13   13   11    5
 0.3680018063429029   13   13   11   11
 0.07312259793300105   13   13   12    6
 0.3880580676353588   13   13   12   12
 0.07170576116001545   13   13   13    7
 0.4209513147496826   13   13   13   13
 -0.1633069354340769   14    1    1    1
 -0.1634226267089514   14    1    2    2
 0.0217102709041563   14    1    3    1
 -0.01907557171346528   14    1    3    3
 0.02603034104210034   14    1    4    2
 -0.001739279703896839   14    1    4    4
 -0.0150964368427324   14    1    5    1
 -0.006850810659890978   14    1    5    3
 -0.002415102787432761   14    1    5    5
 -0.007573707000390356   14    1    6    6
 -0.007573707000390368   14    1    7    7
 -0.003993343078839453   14    1    8    8
 -0.003993343078839436   14    1    9    9
 0.01413784004827106   14    1   10    2
 -0.003813795762739509   14    1   10    4
 -0.00249603952177361   14    1   10   10
 0.003236432119845807   14    1   11    1