 &FCI NORB=  13,NELEC=10,MS2=0,
  ORBSYM=1,1,1,1,1,1,1,1,1,1,1,1,1,
  ISYM=1,
 &END
 4.730680488809687    1    1    1    1
 -0.4336056144559147    2    1    1    1
 0.06446675220178982    2    1    2    1
 1.03563574674618    2    2    1    1
 -0.01391617917122898    2    2    2    1
 0.7372113439872175    2    2    2    2
 0.004787065634788117    3    1    1    1
 -0.0005282524933461599    3    1    2    1
 0.0006391598165896366    3    1    2    2
 0.01662379373113366    3    1    3    1
 -0.001649528719922561    3    2    1    1
 0.000332531488268626    3    2    2    1
 0.002472668946364383    3    2    2    2
 0.0209242023341067    3    2    3    1
 0.1372889108526094    3    2    3    2
 0.8228005782759928    3    3    1    1
 -0.005426531182118328    3    3    2    1
 0.6414951768088126    3    3    2    2
 -0.0002000684430382163    3    3    3    1
 -0.0003424881943410783    3    3    3    2
 0.6164737121555771    3    3    3    3
 0.155257670652564    4    1    1    1
 -0.01953291400128733    4    1    2    1
 0.01445949364487895    4    1    2    2
 0.0004107847948246987    4    1    3    1
 9.940007579299172e-05    4    1    3    2
 0.005375850292471098    4    1    3    3
 0.02881534061442453    4    1    4    1
 -0.1115704039546447    4    2    1    1
 0.00838619576106713    4    2    2    1
 0.005024618416546587    4    2    2    2
 6.07674753424118e-05    4    2    3    1
 0.0003896360048976839    4    2    3    2
 0.004554857442868604    4    2    3    3
 0.02100074189827647    4    2    4    1
 0.1204549989342235    4    2    4    2
 0.005627956500664724    4    3    1    1
 -0.0002213422137839729    4    3    2    1
 0.002019833380009741    4    3    2    2
 -0.003749960768438632    4    3    3    1
 0.0157677629478946    4    3    3    2
 0.001621179522567497    4    3    3    3
 -0.0003278913317079769    4    3    4    1
 -0.002353218172620891    4    3    4    2
 0.04373278420668718    4    3    4    3
 0.9632080702565975    4    4    1    1
 -0.012235861909966    4    4    2    1
 0.6619807992196791    4    4    2    2
 -5.54535155267788e-05    4    4    3    1
 -0.001895788107211847    4    4    3    2
 0.5799589368006023    4    4    3    3
 -0.01125010784276232    4    4    4    1
 -0.08532725477554835    4    4    4    2
 0.002707341159732775    4    4    4    3
 0.718582937492831    4    4    4    4
 0.0293696189478068    5    1    5    1
 0.03151790247219698    5    2    5    1
 0.1359810774473931    5    2    5    2
 -0.0003651386802735438    5    3    5    1
 -0.001266311634308153    5    3    5    2
 0.02743104487988348    5    3    5    3
 -0.0109673353275959    5    4    5    1
 -0.03699926798144486    5    4    5    2
 0.0006388220172368673    5    4    5    3
 0.04542258550731521    5    4    5    4
 1.060355276567277    5    5    1    1
 -0.01109414503999972    5    5    2    1
 0.7203406856020947    5    5    2    2
 0.0001102470045354048    5    5    3    1
 -0.0008437111660773413    5    5    3    2
 0.6032151597589326    5    5    3    3
 0.003427964526539344    5    5    4    1
 -0.05477169447649433    5    5    4    2
 0.002826470471521995    5    5    4    3
 0.6695385515672375    5    5    4    4
 0.7926018565944404    5    5    5    5
 -0.1724416532615718    6    1    1    1
 0.0278385610805611    6    1    2    1
 -0.00038682834009058    6    1    2    2
 -0.000608470930622331    6    1    3    1
 -0.000385824263137695    6    1    3    2
 0.0001197703114903938    6    1    3    3
 0.001683639093220278    6    1    4    1
 0.01371524776167416    6    1    4    2
 -0.0001369276416029926    6    1    4    3
 -0.01059275367637449    6    1    4    4
 -0.003129513363478349    6    1    5    5
 0.0165336520252143    6    1    6    1
 0.245913555380521    6    2    1    1
 -0.005033776497875079    6    2    2    1
 0.123922847029252    6    2    2    2
 -0.0002055335459611575    6    2    3    1
 -0.001684951680957125    6    2    3    2
 0.07563283725324833    6    2    3    3
 0.01403978302399589    6    2    4    1
 0.02325589023076091    6    2    4    2
 0.0008608800333590584    6    2    4    3
 0.07396014865033095    6    2    4    4
 0.1163988363170817    6    2    5    5
 0.003642197989299785    6    2    6    1
 0.05885580790307662    6    2    6    2
 -0.01061237931420621    6    3    1    1
 0.0002284675010268472    6    3    2    1
 -0.005368392643251627    6    3    2    2
 0.003774971671375676    6    3    3    1
 -0.01608381342314197    6    3    3    2
 -0.00407608177781346    6    3    3    3
 -5.850225448537698e-05    6    3    4    1
 0.001664405544271555    6    3    4    2
 -0.01325385241746957    6    3    4    3
 -0.003880881934599249    6    3    4    4
 -0.00561270803752107    6    3    5    5
 -2.988240212500372e-05    6    3    6    1
 -0.001924818394101976    6    3    6    2
 0.03660203936731533    6    3    6    3
 0.1787155607893627    6    4    1    1
 -0.001475125810721421    6    4    2    1
 0.09003745929830406    6    4    2    2
 0.0002622128793863292    6    4    3    1
 0.001762163608522957    6    4    3    2
 0.05132382262343359    6    4    3    3
 0.002416516776182551    6    4    4    1
 -0.02120987298575408    6    4    4    2
 0.001384822247536569    6    4    4    3
 0.09734558253661299    6    4    4    4
 0.09355106796662584    6    4    5    5
 0.0006129503632781739    6    4    6    1
 0.03513189912910457    6    4    6    2
 -0.002996056885977981    6    4    6    3
 0.04366490345903955    6    4    6    4
 0.01012105393484195    6    5    5    1
 0.03202781137779813    6    5    5    2
 -0.0008153968358931707    6    5    5    3
 0.002273372545578197    6    5    5    4
 0.0170112994336739    6    5    6    5
 0.5367243917938731    6    6    1    1
 -0.003225353584024912    6    6    2    1
 0.4499049555958708    6    6    2    2
 -0.0002233471698732209    6    6    3    1
 -0.003061382904685842    6    6    3    2
 0.4253537219423569    6    6    3    3
 0.01079896258316268    6    6    4    1
 0.03924544866001366    6    6    4    2
 -0.002172023138937685    6    6    4    3
 0.4080015594534893    6    6    4    4
 0.42055543129036    6    6    5    5
 0.003201430389616321    6    6    6    1
 0.04166232653511735    6    6    6    2
 0.001309471191979446    6    6    6    3
 0.01442527013155014    6    6    6    4
 0.3802488077492164    6    6    6    6
 0.006216904820384503    7    1    1    1
 -0.001079958494739574    7    1    2    1
 -0.0001710496058508156    7    1    2    2
 -0.0136988881114342    7    1    3    1
 -0.01691451166059263    7    1    3    2
 0.0002914530973140331    7    1    3    3
 0.0002627866009771375    7    1    4    1
 -9.080399702512154e-05    7    1    4    2
 0.003405985129799752    7    1    4    3
 0.0001806557308497629    7    1    4    4
 0.0001074444395164631    7    1    5    5
 -9.060457937087311e-05    7    1    6    1
 0.0003545075322620112    7    1    6    2
 -0.003206457709101203    7    1    6    3
 -0.0001795115527322113    7    1    6    4
 0.0002761365167312407    7    1    6    6
 0.01133286125891821    7    1    7    1
 -0.0100098727118953    7    2    1    1
 0.0001461323386262694    7    2    2    1
 -0.005217675631116338    7    2    2    2
 -0.01300983341095178    7    2    3    1
 -0.04643415439117097    7    2    3    2
 -0.002066088187586099    7    2    3    3
 -0.0001801651697169944    7    2    4    1
 0.0007275457133951539    7    2    4    2
 0.01810691378245037    7    2    4    3
 -0.003945038466761901    7    2    4    4
 -0.004535840252361222    7    2    5    5
 0.0003766662135338961    7    2    6    1
 -0.0005887678995313699    7    2    6    2
 -0.01591328800613916    7    2    6    3
 -0.001580879210869299    7    2    6    4
 -0.001313208882158856    7    2    6    6
 0.01070345638468373    7    2    7    1
 0.03666435749782846    7    2    7    2
 -0.3168016417822934    7    3    1    1
 0.00546272988765041    7    3    2    1
 -0.1488192745385495    7    3    2    2
 4.237631706191447e-06    7    3    3    1
 0.001800165414800551    7    3    3    2
 -0.1120899462148564    7    3    3    3
 0.0002088821285129221    7    3    4    1
 0.04683607010215354    7    3    4    2
 -0.001422673936033987    7    3    4    3
 -0.1417156750738938    7    3    4    4
 -0.1615592064398891    7    3    5    5
 0.00260084515053738    7    3    6    1
 -0.04812680274957629    7    3    6    2
 0.002152598906392994    7    3    6    3
 -0.0505368442714948    7    3    6    4
 -0.02295356713084678    7    3    6    6
 -9.869622481391666e-05    7    3    7    1
 0.002207637139239477    7    3    7    2
 0.09588818793915378    7    3    7    3
 0.001565721439667905    7    4    1    1
 -3.74677604308684e-05    7    4    2    1
 0.001276297757126568    7    4    2    2
 0.006626774100137736    7    4    3    1
 0.0459220394734173    7    4    3    2
 -9.852401827732554e-05    7    4    3    3
 -0.0002210197164380807    7    4    4    1
 -0.001168613587457551    7    4    4    2
 -0.004551701077707099    7    4    4    3
 0.0006091444919782659    7    4    4    4
 0.0008825051201579796    7    4    5    5
 -0.0003110398753799534    7    4    6    1
 -0.0006989652846982275    7    4    6    2
 -0.02254924959569045    7    4    6    3
 0.001561700304238508    7    4    6    4
 -0.001829406206551669    7    4    6    6
 -0.005422315086158144    7    4    7    1
 -0.01125831360215259    7    4    7    2
 0.0005415567787428258    7    4    7    3
 0.03323907533811932    7    4    7    4
 -0.0003320942818048697    7    5    5    1
 -0.0009448086024640647    7    5    5    2
 -0.01597606821389003    7    5    5    3
 0.0002894140842250619    7    5    5    4
 -9.489022899970938e-06    7    5    6    5
 0.01207480679825526    7    5    7    5
 0.003644832739697983    7    6    1    1
 -0.0001055230251792678    7    6    2    1
 0.0006323071975746871    7    6    2    2
 -0.006345048769310281    7    6    3    1
 -0.0627850502487667    7    6    3    2
 0.00193038265316939    7    6    3    3
 -0.0001779436223776481    7    6    4    1
 -0.0005613482253762157    7    6    4    2
 -0.03046375069174696    7    6    4    3
 0.003154052121733848    7    6    4    4
 0.001740177988142215    7    6    5    5
 3.943012555377704e-05    7    6    6    1
 0.0003780992960376372    7    6    6    2
 0.03936816066275327    7    6    6    3
 -0.001732098679591982    7    6    6    4
 0.005243738221778578    7    6    6    6
 0.004680399287400176    7    6    7    1
 -0.001773045243063701    7    6    7    2
 -0.002442349078050326    7    6    7    3
 -0.03402463688527427    7    6    7    4
 0.08558305924015111    7    6    7    6
 0.5683437381553926    7    7    1    1
 -0.004101493249012756    7    7    2    1
 0.4528586943161308    7    7    2    2
 0.0004985024734651566    7    7    3    1
 0.004304711819485972    7    7    3    2
 0.4459814575127659    7    7    3    3
 0.001920947126630014    7    7    4    1
 0.001946162028255524    7    7    4    2
 0.001767899521085342    7    7    4    3
 0.4285514846546035    7    7    4    4
 0.4334866673260361    7    7    5    5
 -0.001207111082517648    7    7    6    1
 0.03155006902923583    7    7    6    2
 -0.00404915087687341    7    7    6    3
 0.01331294942986726    7    7    6    4
 0.3701086269779483    7    7    6    6
 -0.0002898804122470683    7    7    7    1
 -0.001345707659949872    7    7    7    2
 -0.04212785498766371    7    7    7    3
 0.002692486917559897    7    7    7    4
 -0.004166153319464228    7    7    7    6
 0.3876050066390285    7    7    7    7
 0.006274732004486201    8    1    1    1
 -0.001011570294287465    8    1    2    1
 2.046147967214329e-05    8    1    2    2
 0.007891338604715584    8    1    3    1
 0.00930367497826399    8    1    3    2
 -0.0001820050544899999    8    1    3    3
 -0.0006203258528985027    8    1    4    1
 -0.001073055482944622    8    1    4    2
 -0.002104586643027994    8    1    4    3
 0.0007738202626498511    8    1    4    4
 0.000166056710210669    8    1    5    5
 -0.001080165625101766    8    1    6    1
 -0.000571009564637286    8    1    6    2
 0.001547343532388788    8    1    6    3
 6.43047499421758e-05    8    1    6    4
 -0.000471684628749603    8    1    6    6
 -0.006499663137988883    8    1    7    1
 -0.005887800520478572    8    1    7    2
 -0.0001353836608266237    8    1    7    3
 0.003302271208182194    8    1    7    4
 -0.002770160835246159    8    1    7    6
 0.0002506148958606816    8    1    7    7
 0.003820136817414701    8    1    8    1
 -0.007373507867141916    8    2    1    1
 0.0001920981971826378    8    2    2    1
 -0.002865774521616456    8    2    2    2
 0.004919270345312251    8    2    3    1
 -0.008048071931239973    8    2    3    2
 -0.0008814874376999408    8    2    3    3
 -0.0007546267775646491    8    2    4    1
 -0.0006631558773460496    8    2    4    2
 -0.03258470084446442    8    2    4    3
 0.0001674021133200048    8    2    4    4
 -0.003353209745828174    8    2    5    5
 -0.0003856169208319045    8    2    6    1
 -0.002930484775551986    8    2    6    2
 0.01489961398218873    8    2    6    3
 -0.001763164540414441    8    2    6    4
 0.0005306033439326551    8    2    6    6
 -0.004175137812831256    8    2    7    1
 -0.01886737200244839    8    2    7    2
 0.001603461656571235    8    2    7    3
 -0.0003147663258071441    8    2    7    4
 0.0168788845913343    8    2    7    6
 -0.0006792946519215672    8    2    7    7
 0.00241067786545211    8    2    8    1
 0.03372876360480716    8    2    8    2
 0.1063623752948139    8    3    1    1
 -0.003951531907118262    8    3    2    1
 0.0001634596883454959    8    3    2    2
 -0.0001618999331003951    8    3    3    1
 0.001559739375707868    8    3    3    2
 -0.0243982807408491    8    3    3    3
 -0.003978950284668032    8    3    4    1
 -0.06269904871805927    8    3    4    2
 0.00391402405966322    8    3    4    3
 0.02389149226738293    8    3    4    4
 0.03935217988530899    8    3    5    5
 -0.003711467296627796    8    3    6    1
 0.01187440703270646    8    3    6    2
 -0.003873328654096534    8    3    6    3
 0.02733135925274853    8    3    6    4
 -0.02893218309542734    8    3    6    6
 0.0001927224058347409    8    3    7    1
 0.0002438282467867044    8    3    7    2
 -0.05027175677157985    8    3    7    3
 0.001650429534355817    8    3    7    4
 -0.002010526100730095    8    3    7    6
 -0.01222074120873113    8    3    7    7
 0.0001852691568064646    8    3    8    1
 -0.005139668288145434    8    3    8    2
 0.08258694771216017    8    3    8    3
 -0.01125089518443983    8    4    1    1
 0.0002609433216939908    8    4    2    1
 -0.003210349006627454    8    4    2    2
 -0.006682722457666228    8    4    3    1
 -0.06357807360271968    8    4    3    2
 0.001305525620032335    8    4    3    3
 0.0001406002747867533    8    4    4    1
 0.003702459456099762    8    4    4    2
 -0.01193693878295535    8    4    4    3
 -0.003224736675798617    8    4    4    4
 -0.004075390943081584    8    4    5    5
 0.0003802229616590361    8    4    6    1
 -0.001208235794030331    8    4    6    2
 0.02053614376718987    8    4    6    3
 -0.00405982153066894    8    4    6    4
 0.002518928774803958    8    4    6    6
 0.005439516040689014    8    4    7    1
 0.01200555153220931    8    4    7    2
 0.002485433759477621    8    4    7    3
 -0.03008228432889106    8    4    7    4
 0.03121133939204076    8    4    7    6
 -0.001468464291319547    8    4    7    7
 -0.003109704810223509    8    4    8    1
 0.01783242044467362    8    4    8    2
 -0.007692520742608057    8    4    8    3
 0.0455719987186445    8    4    8    4
 -0.0004970118855502672    8    5    5    1
 -0.00226890931900291    8    5    5    2
 0.01128147189242842    8    5    5    3
 -0.0002200067533850449    8    5    5    4
 -0.001091169846473313    8    5    6    5
 -0.007589069375948935    8    5    7    5
 0.006889987500120927    8    5    8    5
 -0.02061779594814818    8    6    1    1
 0.0003062969415946322    8    6    2    1
 -0.01256996306947039    8    6    2    2
 0.001378198902247662    8    6    3    1
 0.008233536864847617    8    6    3    2
 -0.01117873633907935    8    6    3    3
 -0.0004797904685524778    8    6    4    1
 -0.0007004090638837614    8    6    4    2
 0.01075035078610302    8    6    4    3
 -0.0114021873803179    8    6    4    4
 -0.01145448167752625    8    6    5    5
 -0.0001109980604876365    8    6    6    1
 -0.002707746459511618    8    6    6    2
 0.00246970972353233    8    6    6    3
 -0.002126626177075301    8    6    6    4
 -0.00531021815559872    8    6    6    6
 -0.001175008381916479    8    6    7    1
 0.001044959770074419    8    6    7    2
 0.002876923416174426    8    6    7    3
 -0.001286740305542202    8    6    7    4
 0.006304832510378643    8    6    7    6
 -0.00622152554228841    8    6    7    7
 0.0005656516266723495    8    6    8    1
 -0.01414372789730705    8    6    8    2
 0.003804360948034194    8    6    8    3
 -0.01160429995122339    8    6    8    4
 0.02104883234664711    8    6    8    6
 -0.1821649088911335    8    7    1    1
 0.002647192778010729    8    7    2    1
 -0.1127091977435204    8    7    2    2
 0.0001305778050958805    8    7    3    1
 0.001854678722543615    8    7    3    2
 -0.1052903864909201    8    7    3    3
 0.0004337336989946896    8    7    4    1
 0.01104602640885294    8    7    4    2
 0.00059045206043963    8    7    4    3
 -0.1093313534031328    8    7    4    4
 -0.1075807232170859    8    7    5    5
 0.001349741819915932    8    7    6    1
 -0.01846211165786186    8    7    6    2
 0.0005457157085711568    8    7    6    3
 -0.01783437854950749    8    7    6    4
 -0.04179127374112667    8    7    6    6
 -0.0001415817638108477    8    7    7    1
 0.0008511859562351808    8    7    7    2
 0.03696372832898728    8    7    7    3
 0.0003583609343344053    8    7    7    4
 -0.001762136392423492    8    7    7    6
 -0.04994103427043956    8    7    7    7
 -3.927850401738356e-05    8    7    8    1
 -0.001381268422978978    8    7    8    2
 0.01013069079853807    8    7    8    3
 -0.002031919389534374    8    7    8    4
 0.005199004256904339    8    7    8    6
 0.04232386991503873    8    7    8    7
 0.5084749230615619    8    8    1    1
 -0.0007057593794538666    8    8    2    1
 0.49083046033898    8    8    2    2
 -0.0008568128579050335    8    8    3    1
 -0.01608039422725206    8    8    3    2
 0.5076865745925391    8    8    3    3
 0.003647141876647736    8    8    4    1
 0.04642706912002623    8    8    4    2
 -0.01062284527195225    8    8    4    3
 0.4508754871338469    8    8    4    4
 0.4390281041891492    8    8    5    5
 0.001525550775254029    8    8    6    1
 0.02250722474746974    8    8    6    2
 0.008937848070171195    8    8    6    3
 0.001335505092139399    8    8    6    4
 0.3940270439873352    8    8    6    6
 0.000654560855886744    8    8    7    1
 -0.002027533539694332    8    8    7    2
 -0.01570399319396517    8    8    7    3
 -0.007726771868890565    8    8    7    4
 0.01633935660942907    8    8    7    6
 0.3953157169834152    8    8    7    7
 -0.0004862961555155633    8    8    8    1
 0.01260711368671715    8    8    8    2
 -0.09813464559566147    8    8    8    3
 0.01905845255646567    8    8    8    4
 -0.01368256388618112    8    8    8    6
 -0.08152344635354743    8    8    8    7
 0.5383625827867974    8    8    8    8
 0.1059597902563103    9    1    1    1
 -0.0177213158785306    9    1    2    1
 -0.0008311116211981426    9    1    2    2
 -0.0006405110079157235    9    1    3    1
 -0.0009534030187665087    9    1    3    2
 0.0001026669648972419    9    1    3    3
 -0.005868396208094528    9    1    4    1
 -0.01290903982282393    9    1    4    2
 0.0004262123296781809    9    1    4    3
 0.0101392656402346    9    1    4    4
 0.002489659062870628    9    1    5    5
 -0.01261196518698291    9    1    6    1
 -0.004396127697413775    9    1    6    2
 -0.0001938105769337501    9    1    6    3
 -0.0005527841240399993    9    1    6    4
 -0.003598901132650772    9    1    6    6
 0.0008765217414704472    9    1    7    1
 0.0005177553153806112    9    1    7    2
 -0.00238291094783609    9    1    7    3
 -0.0001681595471593722    9    1    7    4
 0.0003577195128461344    9    1    7    6
 0.0008880823708829441    9    1    7    7
 0.0004181265676982175    9    1    8    1
 7.233700121996853e-05    9    1    8    2
 0.003306700116756143    9    1    8    3
 0.0001049436908100991    9    1    8    4
 4.636470208915148e-05    9    1    8    6
 -0.001333917518868299    9    1    8    7
 -0.001115168554710504    9    1    8    8
 0.010442482160365    9    1    9    1
 -0.1268346023211535    9    2    1    1
 0.003345556106525658    9    2    2    1
 -0.04108095088486723    9    2    2    2
 -0.000551165774924904    9    2    3    1
 0.001445758144325124    9    2    3    2
 0.002738038606223235    9    2    3    3
 -0.009362372674275763    9    2    4    1
 -0.001125855485119904    9    2    4    2
 0.002588566607033929    9    2    4    3
 -0.01830359911202351    9    2    4    4
 -0.05832976659365883    9    2    5    5
 -0.002455503211870224    9    2    6    1
 -0.03481309355742973    9    2    6    2
 -0.0003532553096342571    9    2    6    3
 -0.02397014867980695    9    2    6    4
 -0.007536515354090705    9    2    6    6
 0.0003440689258006071    9    2    7    1
 0.002635197639655697    9    2    7    2
 0.02996254646579671    9    2    7    3
 0.0001207019014101768    9    2    7    4
 -0.001494625430841076    9    2    7    6
 0.002236321972568043    9    2    7    7
 6.080563604760493e-05    9    2    8    1
 -0.0004398229899851816    9    2    8    2
 -0.03957263432112597    9    2    8    3
 0.001388208260584261    9    2    8    4
 0.0008936461776245563    9    2    8    6
 -0.00516975836339692    9    2    8    7
 0.0485267424819029    9    2    8    8
 0.003119471969203086    9    2    9    1
 0.04429821112431469    9    2    9    2
 -0.00994388412553108    9    3    1    1
 0.0003754460088206803    9    3    2    1
 0.0007739268579704745    9    3    2    2
 0.0008810173255469077    9    3    3    1
 0.0576444944250137    9    3    3    2
 0.00229495933386942    9    3    3    3
 0.000436927802875247    9    3    4    1
 0.005320372263050134    9    3    4    2
 0.03440032272012585    9    3    4    3
 -0.004141217751881851    9    3    4    4
 -0.003646869168533315    9    3    5    5
 0.0003567700381675276    9    3    6    1
 -0.000882987183967305    9    3    6    2
 -0.03326278857393822    9    3    6    3
 -0.0008615590690335428    9    3    6    4
 -0.0002200665581819317    9    3    6    6
 -0.0005887602870466087    9    3    7    1
 0.007149027072480839    9    3    7    2
 0.005356452667578481    9    3    7    3
 0.02617278005342097    9    3    7    4
 -0.0419147591077852    9    3    7    6
 0.003297148485155575    9    3    7    7
 0.0003495155484947092    9    3    8    1
 -0.04059517409934205    9    3    8    2
 -0.002088434336356652    9    3    8    3
 -0.04959029923384685    9    3    8    4
 0.02118065606512832    9    3    8    6
 0.001409075186378574    9    3    8    7
 -0.01123779444276349    9    3    8    8
 -0.0003729342532317043    9    3    9    1
 0.00725168473676209    9    3    9    2
 0.07833570942728359    9    3    9    3
 -0.1275428937154735    9    4    1    1
 0.003109882194762042    9    4    2    1
 -0.03106180473373902    9    4    2    2
 0.0005789979988307478    9    4    3    1
 0.005315221825382745    9    4    3    2
 0.005646303820808855    9    4    3    3
 -0.0004488089731290553    9    4    4    1
 0.02444615819048716    9    4    4    2
 -0.0009956920674128191    9    4    4    3
 -0.04623191478891191    9    4    4    4
 -0.04621212025574971    9    4    5    5
 0.001251476603484445    9    4    6    1
 -0.02271869411944179    9    4    6    2
 -0.0001067407265442911    9    4    6    3
 -0.02775382972897613    9    4    6    4
 0.0001083663773160863    9    4    6    6
 -0.0005332754252807354    9    4    7    1
 -0.0005135994830529379    9    4    7    2
 0.03365349324612605    9    4    7    3
 0.00215335584939847    9    4    7    4
 -0.001925122885634451    9    4    7    6
 0.00261412863326236    9    4    7    7
 0.0002176949447533571    9    4    8    1
 0.001432947599258868    9    4    8    2
 -0.04490538094311831    9    4    8    3
 0.0006697758147674405    9    4    8    4
 -0.00033640984593206    9    4    8    6
 -0.004453306856192814    9    4    8    7
 0.05339219570987519    9    4    8    8
 -0.0009402576315778329    9    4    9    1
 0.03428765161079786    9    4    9    2
 0.006680830501876447    9    4    9    3
 0.03978499798648145    9    4    9    4
 -0.008943025937863521    9    5    5    1
 -0.04183780141715601    9    5    5    2
 -0.0006695979300583431    9    5    5    3
 0.001571829732693499    9    5    5    4
 -0.01292163426572644    9    5    6    5
 0.0009355676160470056    9    5    7    5
 0.0004724383577492047    9    5    8    5
 0.01828182207393243    9    5    9    5
 -0.1934448346048738    9    6    1    1
 0.002916561308152356    9    6    2    1
 -0.1168633471198181    9    6    2    2
 -0.0001174947599879562    9    6    3    1
 0.0001607235121975229    9    6    3    2
 -0.1005436707232318    9    6    3    3
 -0.007007525645753057    9    6    4    1
 -0.01503710139805209    9    6    4    2
 -0.0003444257710703454    9    6    4    3
 -0.09479243716525723    9    6    4    4
 -0.1027845361205793    9    6    5    5
 -0.001710314062722053    9    6    6    1
 -0.03033197584487012    9    6    6    2
 0.0003196103505989155    9    6    6    3
 -0.02003360881798603    9    6    6    4
 -0.05270708841180288    9    6    6    6
 7.142499882762309e-06    9    6    7    1
 0.0008781592093966893    9    6    7    2
 0.02417328203349233    9    6    7    3
 0.0005492510222613338    9    6    7    4
 -0.001312138742830675    9    6    7    6
 -0.05019767511716468    9    6    7    7
 0.0001711787125923376    9    6    8    1
 0.0005043130189224401    9    6    8    2
 0.0221311864067804    9    6    8    3
 -0.000924299675616407    9    6    8    4
 0.003882889546326122    9    6    8    6
 0.0356259746426691    9    6    8    7
 -0.08541406698470932    9    6    8    8
 0.002042186526586202    9    6    9    1
 -0.0003901851716474182    9    6    9    2
 -0.002100761663855398    9    6    9    3
 -0.005219497535998636    9    6    9    4
 0.04558002380253311    9    6    9    6
 0.0192425834313917    9    7    1    1
 -0.0002783566052799745    9    7    2    1
 0.01182873040111022    9    7    2    2
 0.002571393432837251    9    7    3    1
 0.02342367390498714    9    7    3    2
 0.01056704036443607    9    7    3    3
 7.366315715459906e-05    9    7    4    1
 -0.0012126174190609    9    7    4    2
 0.01477894233593445    9    7    4    3
 0.01040827450712086    9    7    4    4
 0.01093601632449048    9    7    5    5
 -0.0001652715616379941    9    7    6    1
 0.002109120156092511    9    7    6    2
 -0.006111258219092432    9    7    6    3
 0.002421212919854542    9    7    6    4
 0.003533585864524397    9    7    6    6
 -0.002047152696923265    9    7    7    1
 -0.000761356393105559    9    7    7    2
 -0.00361543282420447    9    7    7    3
 0.005981476289163032    9    7    7    4
 -0.008863474853063911    9    7    7    6
 0.005406158888154987    9    7    7    7
 0.001038907898182969    9    7    8    1
 -0.01515560310962194    9    7    8    2
 0.00120485517177632    9    7    8    3
 -0.01921903295793329    9    7    8    4
 0.01689539720270108    9    7    8    6
 -0.002832362279428906    9    7    8    7
 0.0006995124763096094    9    7    8    8
 -3.545129911457344e-06    9    7    9    1
 0.001671032186776063    9    7    9    2
 0.0285025045985913    9    7    9    3
 0.001205985666824277    9    7    9    4
 -0.004194369889013952    9    7    9    6
 0.01976874983112006    9    7    9    7
 0.0002880433301758367    9    8    1    1
 -0.0001130817920361692    9    8    2    1
 -0.0022489209040061    9    8    2    2
 -0.006509021875908935    9    8    3    1
 -0.1157191966444722    9    8    3    2
 -0.001199915985489676    9    8    3    3
 0.0005201888939597402    9    8    4    1
 0.00348513612411351    9    8    4    2
 -0.06376453715127034    9    8    4    3
 0.0006775945782866894    9    8    4    4
 -0.001072279772423087    9    8    5    5
 0.000341077174693585    9    8    6    1
 0.0006395230484219581    9    8    6    2
 0.05996438613449955    9    8    6    3
 -0.0038249158189003    9    8    6    4
 0.007178255047773048    9    8    6    6
 0.004888036434301711    9    8    7    1
 -0.005827194354211976    9    8    7    2
 -0.0001726560734124548    9    8    7    3
 -0.05019953470311109    9    8    7    4
 0.09693179531434828    9    8    7    6
 -0.005562729527966559    9    8    7    7
 -0.002788512752310934    9    8    8    1
 0.06394372162826517    9    8    8    2
 -0.009727227276508559    9    8    8    3
 0.08725176125984013    9    8    8    4
 -0.02704997006164778    9    8    8    6
 -0.003273495495758419    9    8    8    7
 0.03662216539276202    9    8    8    8
 2.985850800239035e-05    9    8    9    1
 -0.00631769819372011    9    8    9    2
 -0.1262305452994448    9    8    9    3
 -0.004723658435579599    9    8    9    4
 -0.0005561795150263527    9    8    9    6
 -0.04574953584002149    9    8    9    7
 0.2323105158728457    9    8    9    8
 0.5693544144341868    9    9    1    1
 -0.001693308463149807    9    9    2    1
 0.5292146596516225    9    9    2    2
 0.001220949361452904    9    9    3    1
 0.0196927409115748    9    9    3    2
 0.5321946949516202    9    9    3    3
 0.01012423854666305    9    9    4    1
 0.07328972944759414    9    9    4    2