&FCI NORB=4
&END
0.7134575551055222    1    1
0.9297461762841454    2    2
0.7835923888931371    3    3
0.708348137895966    4    4