&FCI NORB=4
&END
-0.01832284815866287    1    1    1
0.03501458713599747    1    1    2
-0.014979069296953798    1    1    3
0.09402552018769914    1    1    4
0.11127906252024702    1    2    1
-0.02797403548181335    1    2    2
0.0700140091398395    1    2    3
0.006934780740697075    1    2    4
0.016330694662543752    1    3    1
0.10214319319023864    1    3    2
-0.10295134603250714    1    3    3
-0.09908896807163023    1    3    4
-0.11514758461432183    1    4    1
0.07982876293150512    1    4    2
0.06675762022796411    1    4    3
0.0888029155792366    1    4    4
0.11486840213586336    2    1    1
0.07179805541201366    2    1    2
-0.009244953059296356    2    1    3
0.06732700230874931    2    1    4
-0.09161413779145602    2    2    1
0.03358104511860571    2    2    2
-0.08559521102182886    2    2    3
0.10672054009190013    2    2    4
0.0052435972200172015    2    3    1
-0.020481134402274337    2    3    2
-0.056506653094889524    2    3    3
0.065816085464212    2    3    4
-0.010523920268028349    2    4    1
0.01642414772847564    2    4    2
-0.11549044789527477    2    4    3
0.028232519298210492    2    4    4
0.02690297345338114    3    1    1
0.02806415924994166    3    1    2
0.1064995388435098    3    1    3
0.043636871784836016    3    1    4
-0.033718103862291356    3    2    1
-0.01511233108815805    3    2    2
0.047431487022543566    3    2    3
-0.10554588680897524    3    2    4
0.04002401170696024    3    3    1
0.04095308870835826    3    3    2
-0.06950818534227818    3    3    3
-0.0890576885628352    3    3    4
-0.04429719577819587    3    4    1
-0.03270941497377057    3    4    2
0.016847224900291113    3    4    3
-0.014735636769043116    3    4    4
0.11720972113421428    4    1    1
-0.09550924542047326    4    1    2
-0.06986957853723967    4    1    3
-0.08128571570760089    4    1    4
0.03674599811169562    4    2    1
-0.05921001539045229    4    2    2
-0.00808541451448649    4    2    3
-0.06133785791961534    4    2    4
-0.08184729992507526    4    3    1
-0.09350996612056676    4    3    2
0.03751910147166562    4    3    3
-0.08683609167633269    4    3    4
-0.07282023319678715    4    4    1
-0.03150595904136861    4    4    2
0.07703837516350442    4    4    3
-0.09669569380966529    4    4    4