[Molden Format]
made by pyscf v[1.7.6]
[Atoms] (AU)
Be   1   4     0.00000000000000     0.00000000000000     0.00000000000000
[GTO]
1 0
 s    8 1.00
                  2940  0.00067955728646863
                 441.2  0.0052325911058084
                 100.5   0.026588678182036
                 28.43   0.099927899626261
                 9.169    0.26952641069877
                 3.196    0.45117507141868
                 1.159    0.29488189227565
                0.1811   0.012578805242324
 s    8 1.00
                  2940  -0.00025151360225882
                 441.2  -0.0019753019494473
                 100.5  -0.0098785545732712
                 28.43  -0.039493770032739
                 9.169    -0.1089483311248
                 3.196   -0.24685753337798
                 1.159   -0.27285136193013
                0.1811     1.0853261799196
 s    1 1.00
                0.0589                   1
 p    3 1.00
                 3.619    0.04556067899602
                 0.711    0.26506765134007
                0.1951    0.80359641083914
 p    1 1.00
               0.06018                   1
 d    1 1.00
                 0.238                   1

[5d]
[7f]
[9g]

[MO]
 Sym= A
 Ene=    -4.732325982
 Spin= Alpha
 Occup=    2.00000
   1       1.0006511887881
   2    1.0526203711853e-08
   3    -0.0037559663371117
   4    -1.8961961555268e-33
   5                    -0
   6                    -0
   7    8.9410527191521e-34
   8                    -0
   9                    -0
  10    -5.8194168344268e-18
  11                    -0
  12                    -0
  13    1.9391530554325e-65
  14                    -0
 Sym= A
 Ene=   -0.3090385341
 Spin= Alpha
 Occup=    2.00000
   1    1.4651287639084e-06
   2      0.48904020233811
   3       0.5801155844485
   4    1.3162251494781e-32
   5                     0
   6                     0
   7    5.9852109554338e-32
   8                     0
   9                     0
  10    1.0023329391813e-16
  11                     0
  12                     0
  13    -1.5746262079228e-63
  14                     0
 Sym= A
 Ene=   0.05825880733
 Spin= Alpha
 Occup=    0.00000
   1    -9.7258674395214e-32
   2    -2.6726032338397e-31
   3    2.4969999844277e-31
   4    -0.020510548609344
   5     -0.16806793434358
   6      0.24715411826591
   7    -0.054312605127067
   8     -0.44504940001295
   9      0.65447220776874
  10    1.2702269642183e-45
  11    -1.6759870414622e-32
  12                    -0
  13    -6.6323184350757e-18
  14    5.155036001126e-17
 Sym= A
 Ene=   0.05825880733
 Spin= Alpha
 Occup=    0.00000
   1    6.8407007394912e-32
   2    1.8790922528907e-31
   3    -1.7570144510524e-31
   4     0.014034831929967
   5      0.24692052646227
   6      0.16907379583741
   7     0.037164695062804
   8       0.6538536490147
   9      0.44771295422437
  10    -8.9452934528515e-46
  11    -1.1179275237268e-32
  12                    -0
  13    -6.9674046729877e-18
  14    9.965931822063e-17
 Sym= A
 Ene=   0.05825880733
 Spin= Alpha
 Occup=    0.00000
   1    1.4673364639004e-30
   2    4.0279541342655e-30
   3    -3.7718253206951e-30
   4      0.29855487305187
   5    -0.023153712265088
   6    0.0090313188352625
   7      0.79058309154349
   8    -0.061311789139887
   9     0.023915228354877
  10    -1.9190587103258e-44
  11    -6.2013504578506e-34
  12                     0
  13    4.7844575939025e-19
  14    -3.2073860034628e-18
 Sym= A
 Ene=    0.2988226963
 Spin= Alpha
 Occup=    0.00000
   1      0.62274773981708
   2       1.6779686934723
   3      -1.6395571088621
   4    -1.6823097768113e-30
   5                     0
   6                     0
   7    8.9156998991485e-31
   8                     0
   9                     0
  10    -6.1857834668976e-16
  11                     0
  12                     0
  13    4.4462803316385e-62
  14                     0
 Sym= A
 Ene=    0.3501799121
 Spin= Alpha
 Occup=    0.00000
   1    1.1115920654461e-30
   2    3.0655341241758e-30
   3    -2.8418311687279e-30
   4      0.73293022768259
   5      0.91530083001249
   6      0.26809806848855
   7      -0.5803812458149
   8     -0.72479400624219
   9     -0.21229727621132
  10    -1.1102230246252e-16
  11    -6.0278064002394e-33
  12                     0
  13    -5.6827673782828e-17
  14    -8.9530181661952e-18
 Sym= A
 Ene=    0.3501799121
 Spin= Alpha
 Occup=    0.00000
   1    1.620435669947e-30
   2    4.4712492711863e-30
   3    -4.1389107583796e-30
   4       0.9525974112565
   5     -0.71919003534972
   6     -0.14887164780698
   7     -0.75432783561566
   8      0.56950087870397
   9      0.11788613589308
  10    -1.1102230246252e-16
  11    2.6918819262463e-33
  12                     0
  13    6.6052401593648e-17
  14    1.0065218378374e-17
 Sym= A
 Ene=    0.3501799121
 Spin= Alpha
 Occup=    0.00000
   1    -5.3806855054738e-32
   2    -1.4819134395874e-31
   3    1.3788389909861e-31
   4    -0.047014421364642
   5     -0.30303297845582
   6       1.1630991189712
   7     0.037229039562405
   8      0.23996098252801
   9     -0.92101661273967
  10    1.0408340855861e-17
  11    -2.8043187419576e-32
  12                     0
  13    3.7122222789739e-16
  14    4.1276397714029e-17
 Sym= A
 Ene=    0.6507733834
 Spin= Alpha
 Occup=    0.00000
   1    3.9104132681958e-16
   2    9.8893698992779e-16
   3    -1.0723632791196e-15
   4    5.5534830943423e-16
   5    -4.365890178895e-19
   6    -2.5579082676521e-19
   7    -1.8827507976904e-16
   8    5.4042196436726e-19
   9    2.2246792225454e-19
  10                     1
  11    1.9481724242614e-49
  12                    -0
  13    -1.0468018530616e-32
  14    -1.5403630009117e-36
 Sym= A
 Ene=    0.6507733834
 Spin= Alpha
 Occup=    0.00000
   1    -6.5250048396101e-64
   2    -1.7319083807518e-63
   3    1.7417274009407e-63
   4    2.3389288774263e-33
   5    1.6489750051349e-17
   6    -2.5247588637415e-17
   7    -6.5652671541375e-33
   8    -6.84622924136e-18
   9    2.8379384283848e-17
  10    -5.131708243377e-49
  11    7.1419202816181e-15
  12      0.99898060768942
  13    4.2489309355574e-18
  14     0.045141394090888
 Sym= A
 Ene=    0.6507733834
 Spin= Alpha
 Occup=    0.00000
   1    -3.1579044061842e-77
   2    -8.5058545349787e-77
   3    8.2875402531501e-77
   4    5.0437530177284e-47
   5    3.9388089823763e-31
   6    -5.5212918087802e-31
   7    -1.5945486224054e-46
   8    -1.5202405436772e-31
   9    6.7406257895966e-31
  10    -1.4585192057487e-62
  11                     1
  12    -7.110935128606e-15
  13    1.8896876989825e-17
  14    -8.4698282747308e-16
 Sym= A
 Ene=    0.6507733834
 Spin= Alpha
 Occup=    0.00000
   1    4.1232842902057e-48
   2    1.0427717161603e-47
   3    -1.1307394791619e-47
   4    9.4805096135748e-32
   5    4.2550669036529e-16
   6    -7.6724174560873e-16
   7    -1.6043125554838e-31
   8    -2.9971414033068e-16
   9    6.5781885948009e-16
  10    1.0544369629014e-32
  11    -1.7807535226091e-17
  12    -9.3640297683023e-05
  13      0.99999784847643
  14     0.002072263016407
 Sym= A
 Ene=    0.6507733834
 Spin= Alpha
 Occup=    0.00000
   1    -2.0466090468605e-51
   2    -5.1758401262152e-51
   3    5.6124717211279e-51
   4    3.9613375166542e-33
   5    3.9790583305414e-17
   6    -9.7314485983205e-17
   7    -9.310742509504e-33
   8    -5.5208404963888e-17
   9    4.5060309267968e-17
  10    -5.2337410562363e-36
  11    5.2515996414302e-16
  12    -0.045141296968114
  13    -0.0020743776210031
  14       0.9989784583591
