 &FCI NORB= 8
 &END
0.5    1    1
0.5    2    2
0.5    3    3
0.5    4    4
0.5    5    5
0.5    6    6
0.5    7    7
0.5    8    8
