 &FCI NORB= 3
 &END
0.1721514930979356    1    1    2
0.0822107008573151    1    1    3
0.035906546397517496    1    2    1
0.1167152904533249    1    2    3
-0.049930230989845996    1    3    1
0.31341840062566384    1    3    2
0.23338003046613168    2    1    2
0.023115935802323587    2    1    3
0.05443564887514585    2    2    1
-0.34317115344169047    2    2    3
-0.33029656023876747    2    3    1
-0.38382528204773947    2    3    2
0.29600971859745534    3    1    2
0.3828946737862112    3    1    3
0.2393268513733789    3    2    1
0.2244233410291644    3    2    3
-0.30538045930485347    3    3    1
0.11193681706201906    3    3    2
