&FCI NORB=3, NMODE=3
&END
1.4    1    1    1
1.4    2    2    2
1.4    3    3    3