 &FCI NORB= 3, NMODE=3,
 &END
0.039050803141859804    1    1    1
0.1721514930979356    1    1    2
0.0822107008573151    1    1    3
0.035906546397517496    1    2    1
-0.06107616052887624    1    2    2
0.1167152904533249    1    2    3
-0.049930230989845996    1    3    1
0.31341840062566384    1    3    2
0.37093020840082347    1    3    3
-0.09324678493937784    2    1    1
0.23338003046613168    2    1    2
0.023115935802323587    2    1    3
0.05443564887514585    2    2    1
0.34047731063412884    2    2    2
-0.34317115344169047    2    2    3
-0.33029656023876747    2    3    1
-0.38382528204773947    2    3    2
0.2660958764383504    2    3    3
0.2225254007598804    3    1    1
0.29600971859745534    3    1    2
0.3828946737862112    3    1    3
0.2393268513733789    3    2    1
-0.030816510197654523    3    2    2
0.2244233410291644    3    2    3
-0.30538045930485347    3    3    1
0.11193681706201906    3    3    2
-0.28531737007276287    3    3    3
