&FCI NORB=3
&END
1.4    1    1    1
1.4    2    2    2
1.4    3    3    3
0.4    1    0    0
1.3    2    0    0
0.7    3    0    0