&FCI NORB=3, NELEC=4, MS2=0,
 ORBSYM=1,1,1,1,
 ISYM=1
&END
   4 1 1 1 1
   4 2 2 2 2
   4 3 3 3 3
   -1 2 1 0 0
   -1 3 2 0 0
   0 0 0 0 0