[Molden Format]
made by pyscf v[1.7.6]
[Atoms] (AU)
Be   1   4     0.00000000000000     0.00000000000000     0.00000000000000
[GTO]
1 0
 s    6 1.00
             1264.5857  0.0019447997955701
             189.93681   0.014835098440591
             43.159089   0.072090592422113
             12.098663    0.23715417507126
             3.8063232    0.46919865067963
             1.2728903    0.35652016252397
 s    3 1.00
             3.1964631   -0.11264870434344
             0.7478133   -0.22950640884917
             0.2199663     1.1869167457644
 s    1 1.00
             0.0823099                   1
 p    3 1.00
             3.1964631   0.055980203345957
             0.7478133    0.26155061563298
             0.2199663    0.79397234745602
 p    1 1.00
             0.0823099                   1

[5d]
[7f]
[9g]

[MO]
 Sym= A
 Ene=    -4.706890502
 Spin= Alpha
 Occup=    2.00000
   1      0.99799582363034
   2     0.016142724393862
   3    -0.0054832428929671
   4                    -0
   5                    -0
   6                    -0
   7                    -0
   8                    -0
   9                    -0
 Sym= A
 Ene=   -0.3012953852
 Spin= Alpha
 Occup=    2.00000
   1     -0.22265993692801
   2      0.28876677458823
   3      0.76097960846554
   4                    -0
   5                     0
   6                    -0
   7                     0
   8                     0
   9                    -0
 Sym= A
 Ene=   0.08243534237
 Spin= Alpha
 Occup=    0.00000
   1                    -0
   2                    -0
   3                    -0
   4      0.13187594066251
   5      0.16477808507584
   6      0.15884978674714
   7      0.40128972473228
   8      0.50140876394744
   9      0.48336934604831
 Sym= A
 Ene=   0.08243534237
 Spin= Alpha
 Occup=    0.00000
   1                    -0
   2                    -0
   3                    -0
   4      0.21578450166043
   5     -0.15062992515516
   6     -0.02289127098712
   7      0.65661790041299
   8     -0.45835685340551
   9    -0.069656616567399
 Sym= A
 Ene=   0.08243534237
 Spin= Alpha
 Occup=    0.00000
   1                     0
   2                     0
   3                     0
   4    -0.076302823761866
   5     -0.14119186988982
   6      0.20980722284868
   7     -0.23218442264655
   8     -0.42963747835947
   9      0.63842943815851
 Sym= A
 Ene=    0.4397543107
 Spin= Alpha
 Occup=    0.00000
   1     0.003385513587365
   2       2.0172448341185
   3      -1.8983197265274
   4                    -0
   5                    -0
   6                    -0
   7                    -0
   8                    -0
   9                    -0
 Sym= A
 Ene=    0.4649310089
 Spin= Alpha
 Occup=    0.00000
   1                    -0
   2                    -0
   3                    -0
   4                    -0
   5    9.9957009587158e-17
   6        1.319402379474
   7                    -0
   8    -1.4938994413844e-16
   9       -1.079124116272
 Sym= A
 Ene=    0.4649310089
 Spin= Alpha
 Occup=    0.00000
   1                    -0
   2                    -0
   3                    -0
   4    9.9957009587158e-17
   5        1.319402379474
   6    -6.3567564379395e-17
   7    -1.4938994413844e-16
   8       -1.079124116272
   9    2.6093188023905e-16
 Sym= A
 Ene=    0.4649310089
 Spin= Alpha
 Occup=    0.00000
   1                    -0
   2                    -0
   3                    -0
   4        1.319402379474
   5    6.638328138719e-17
   6    -9.7357928347445e-17
   7       -1.079124116272
   8    2.3264237819717e-16
   9    -1.2500608964831e-16
